
     Program PWSCF v.7.2 starts on  2Jul2024 at 20:12:38 

     This program is part of the open-source Quantum ESPRESSO suite
     for quantum simulation of materials; please cite
         "P. Giannozzi et al., J. Phys.:Condens. Matter 21 395502 (2009);
         "P. Giannozzi et al., J. Phys.:Condens. Matter 29 465901 (2017);
         "P. Giannozzi et al., J. Chem. Phys. 152 154105 (2020);
          URL http://www.quantum-espresso.org", 
     in publications or presentations arising from this work. More details at
     http://www.quantum-espresso.org/quote

     Parallel version (MPI), running on    12 processors

     MPI processes distributed on     1 nodes
     30046 MiB available memory on the printing compute node when the environment starts
 
     Waiting for input...
     Reading input from standard input
     Message from routine read_cards :
     DEPRECATED: no units specified in ATOMIC_POSITIONS card
     Message from routine read_cards :
     ATOMIC_POSITIONS: units set to alat

     Current dimensions of program PWSCF are:
     Max number of different atomic species (ntypx) = 10
     Max number of k-points (npk) =  40000
     Max angular momentum in pseudopotentials (lmaxx) =  4

     Atomic positions and unit cell read from directory:
     ./Fe.save/
 
     file Fe.pbe-spn-kjpaw_psl.1.0.0.UPF: wavefunction(s)  3P 3D renormalized
 
     R & G space division:  proc/nbgrp/npool/nimage =      12
     Subspace diagonalization in iterative solution of the eigenvalue problem:
     a serial algorithm will be used

 
     Parallelization info
     --------------------
     sticks:   dense  smooth     PW     G-vecs:    dense   smooth      PW
     Min         152      68     20                 4157     1230     206
     Max         153      69     21                 4160     1232     208
     Sum        1829     817    249                49901    14771    2491
 
     Using Slab Decomposition
 


     bravais-lattice index     =            3
     lattice parameter (alat)  =       5.4991  a.u.
     unit-cell volume          =      83.1467 (a.u.)^3
     number of atoms/cell      =            1
     number of atomic types    =            1
     number of electrons       =        16.00
     number of Kohn-Sham states=           15
     kinetic-energy cutoff     =     120.0000  Ry
     charge density cutoff     =    1080.0000  Ry
     Exchange-correlation= SLA  PW   PBX  PBC
                           (   1   4   3   4   0   0   0)

     celldm(1)=   5.499100  celldm(2)=   0.000000  celldm(3)=   0.000000
     celldm(4)=   0.000000  celldm(5)=   0.000000  celldm(6)=   0.000000

     crystal axes: (cart. coord. in units of alat)
               a(1) = (   0.500000   0.500000   0.500000 )  
               a(2) = (  -0.500000   0.500000   0.500000 )  
               a(3) = (  -0.500000  -0.500000   0.500000 )  

     reciprocal axes: (cart. coord. in units 2 pi/alat)
               b(1) = (  1.000000  0.000000  1.000000 )  
               b(2) = ( -1.000000  1.000000  0.000000 )  
               b(3) = (  0.000000 -1.000000  1.000000 )  


     PseudoPot. # 1 for Fe read from file:
     ./Fe.pbe-spn-kjpaw_psl.1.0.0.UPF
     MD5 check sum: fc81f059e5c5069939230b1155715ae8
     Pseudo is Projector augmented-wave + core cor, Zval = 16.0
     Generated using &quot;atomic&quot; code by A. Dal Corso  v.6.3
     Shape of augmentation charge: PSQ
     Using radial grid of 1191 points,  6 beta functions with: 
                l(1) =   0
                l(2) =   0
                l(3) =   1
                l(4) =   1
                l(5) =   2
                l(6) =   2
     Q(r) pseudized with 0 coefficients 


     atomic species   valence    mass     pseudopotential
        Fe            16.00    55.84700     Fe( 1.00)

     Starting magnetic structure 
     atomic species   magnetization
        Fe           0.600

     No symmetry found


                                    s                        frac. trans.

      isym =  1     identity                                     

 cryst.   s( 1) = (     1          0          0      )
                  (     0          1          0      )
                  (     0          0          1      )

 cart.    s( 1) = (  1.0000000  0.0000000  0.0000000 )
                  (  0.0000000  1.0000000  0.0000000 )
                  (  0.0000000  0.0000000  1.0000000 )


     point group C_1 (1)    
     there are  1 classes
     the character table:

       E    
A      1.00

     the symmetry operations in each class and the name of the first element:

     E        1
          identity                                               

   Cartesian axes

     site n.     atom                  positions (alat units)
         1           Fe  tau(   1) = (   0.0000000   0.0000000   0.0000000  )

   Crystallographic axes

     site n.     atom                  positions (cryst. coord.)
         1           Fe  tau(   1) = (  0.0000000  0.0000000  0.0000000  )

     number of k points=   101  Marzari-Vanderbilt smearing, width (Ry)=  0.0200
                       cart. coord. in units 2pi/alat
        k(    1) = (   0.0000000   0.0000000   0.0000000), wk =   0.0099010
        k(    2) = (   0.0500000   0.0000000   0.0000000), wk =   0.0099010
        k(    3) = (   0.1000000   0.0000000   0.0000000), wk =   0.0099010
        k(    4) = (   0.1500000   0.0000000   0.0000000), wk =   0.0099010
        k(    5) = (   0.2000000   0.0000000   0.0000000), wk =   0.0099010
        k(    6) = (   0.2500000   0.0000000   0.0000000), wk =   0.0099010
        k(    7) = (   0.3000000   0.0000000   0.0000000), wk =   0.0099010
        k(    8) = (   0.3500000   0.0000000   0.0000000), wk =   0.0099010
        k(    9) = (   0.4000000   0.0000000   0.0000000), wk =   0.0099010
        k(   10) = (   0.4500000   0.0000000   0.0000000), wk =   0.0099010
        k(   11) = (   0.5000000   0.0000000   0.0000000), wk =   0.0099010
        k(   12) = (   0.5500000   0.0000000   0.0000000), wk =   0.0099010
        k(   13) = (   0.6000000   0.0000000   0.0000000), wk =   0.0099010
        k(   14) = (   0.6500000   0.0000000   0.0000000), wk =   0.0099010
        k(   15) = (   0.7000000   0.0000000   0.0000000), wk =   0.0099010
        k(   16) = (   0.7500000   0.0000000   0.0000000), wk =   0.0099010
        k(   17) = (   0.8000000   0.0000000   0.0000000), wk =   0.0099010
        k(   18) = (   0.8500000   0.0000000   0.0000000), wk =   0.0099010
        k(   19) = (   0.9000000   0.0000000   0.0000000), wk =   0.0099010
        k(   20) = (   0.9500000   0.0000000   0.0000000), wk =   0.0099010
        k(   21) = (   1.0000000   0.0000000   0.0000000), wk =   0.0099010
        k(   22) = (   0.9750000   0.0250000   0.0000000), wk =   0.0099010
        k(   23) = (   0.9500000   0.0500000   0.0000000), wk =   0.0099010
        k(   24) = (   0.9250000   0.0750000   0.0000000), wk =   0.0099010
        k(   25) = (   0.9000000   0.1000000   0.0000000), wk =   0.0099010
        k(   26) = (   0.8750000   0.1250000   0.0000000), wk =   0.0099010
        k(   27) = (   0.8500000   0.1500000   0.0000000), wk =   0.0099010
        k(   28) = (   0.8250000   0.1750000   0.0000000), wk =   0.0099010
        k(   29) = (   0.8000000   0.2000000   0.0000000), wk =   0.0099010
        k(   30) = (   0.7750000   0.2250000   0.0000000), wk =   0.0099010
        k(   31) = (   0.7500000   0.2500000   0.0000000), wk =   0.0099010
        k(   32) = (   0.7250000   0.2750000   0.0000000), wk =   0.0099010
        k(   33) = (   0.7000000   0.3000000   0.0000000), wk =   0.0099010
        k(   34) = (   0.6750000   0.3250000   0.0000000), wk =   0.0099010
        k(   35) = (   0.6500000   0.3500000   0.0000000), wk =   0.0099010
        k(   36) = (   0.6250000   0.3750000   0.0000000), wk =   0.0099010
        k(   37) = (   0.6000000   0.4000000   0.0000000), wk =   0.0099010
        k(   38) = (   0.5750000   0.4250000   0.0000000), wk =   0.0099010
        k(   39) = (   0.5500000   0.4500000   0.0000000), wk =   0.0099010
        k(   40) = (   0.5250000   0.4750000   0.0000000), wk =   0.0099010
        k(   41) = (   0.5000000   0.5000000   0.0000000), wk =   0.0099010
        k(   42) = (   0.4750000   0.4750000   0.0000000), wk =   0.0099010
        k(   43) = (   0.4500000   0.4500000   0.0000000), wk =   0.0099010
        k(   44) = (   0.4250000   0.4250000   0.0000000), wk =   0.0099010
        k(   45) = (   0.4000000   0.4000000   0.0000000), wk =   0.0099010
        k(   46) = (   0.3750000   0.3750000   0.0000000), wk =   0.0099010
        k(   47) = (   0.3500000   0.3500000   0.0000000), wk =   0.0099010
        k(   48) = (   0.3250000   0.3250000   0.0000000), wk =   0.0099010
        k(   49) = (   0.3000000   0.3000000   0.0000000), wk =   0.0099010
        k(   50) = (   0.2750000   0.2750000   0.0000000), wk =   0.0099010
        k(   51) = (   0.2500000   0.2500000   0.0000000), wk =   0.0099010
        k(   52) = (   0.2250000   0.2250000   0.0000000), wk =   0.0099010
        k(   53) = (   0.2000000   0.2000000   0.0000000), wk =   0.0099010
        k(   54) = (   0.1750000   0.1750000   0.0000000), wk =   0.0099010
        k(   55) = (   0.1500000   0.1500000   0.0000000), wk =   0.0099010
        k(   56) = (   0.1250000   0.1250000   0.0000000), wk =   0.0099010
        k(   57) = (   0.1000000   0.1000000   0.0000000), wk =   0.0099010
        k(   58) = (   0.0750000   0.0750000   0.0000000), wk =   0.0099010
        k(   59) = (   0.0500000   0.0500000   0.0000000), wk =   0.0099010
        k(   60) = (   0.0250000   0.0250000   0.0000000), wk =   0.0099010
        k(   61) = (   0.0000000   0.0000000   0.0000000), wk =   0.0099010
        k(   62) = (   0.0250000   0.0250000   0.0250000), wk =   0.0099010
        k(   63) = (   0.0500000   0.0500000   0.0500000), wk =   0.0099010
        k(   64) = (   0.0750000   0.0750000   0.0750000), wk =   0.0099010
        k(   65) = (   0.1000000   0.1000000   0.1000000), wk =   0.0099010
        k(   66) = (   0.1250000   0.1250000   0.1250000), wk =   0.0099010
        k(   67) = (   0.1500000   0.1500000   0.1500000), wk =   0.0099010
        k(   68) = (   0.1750000   0.1750000   0.1750000), wk =   0.0099010
        k(   69) = (   0.2000000   0.2000000   0.2000000), wk =   0.0099010
        k(   70) = (   0.2250000   0.2250000   0.2250000), wk =   0.0099010
        k(   71) = (   0.2500000   0.2500000   0.2500000), wk =   0.0099010
        k(   72) = (   0.2750000   0.2750000   0.2750000), wk =   0.0099010
        k(   73) = (   0.3000000   0.3000000   0.3000000), wk =   0.0099010
        k(   74) = (   0.3250000   0.3250000   0.3250000), wk =   0.0099010
        k(   75) = (   0.3500000   0.3500000   0.3500000), wk =   0.0099010
        k(   76) = (   0.3750000   0.3750000   0.3750000), wk =   0.0099010
        k(   77) = (   0.4000000   0.4000000   0.4000000), wk =   0.0099010
        k(   78) = (   0.4250000   0.4250000   0.4250000), wk =   0.0099010
        k(   79) = (   0.4500000   0.4500000   0.4500000), wk =   0.0099010
        k(   80) = (   0.4750000   0.4750000   0.4750000), wk =   0.0099010
        k(   81) = (   0.5000000   0.5000000   0.5000000), wk =   0.0099010
        k(   82) = (   0.4750000   0.4750000   0.5250000), wk =   0.0099010
        k(   83) = (   0.4500000   0.4500000   0.5500000), wk =   0.0099010
        k(   84) = (   0.4250000   0.4250000   0.5750000), wk =   0.0099010
        k(   85) = (   0.4000000   0.4000000   0.6000000), wk =   0.0099010
        k(   86) = (   0.3750000   0.3750000   0.6250000), wk =   0.0099010
        k(   87) = (   0.3500000   0.3500000   0.6500000), wk =   0.0099010
        k(   88) = (   0.3250000   0.3250000   0.6750000), wk =   0.0099010
        k(   89) = (   0.3000000   0.3000000   0.7000000), wk =   0.0099010
        k(   90) = (   0.2750000   0.2750000   0.7250000), wk =   0.0099010
        k(   91) = (   0.2500000   0.2500000   0.7500000), wk =   0.0099010
        k(   92) = (   0.2250000   0.2250000   0.7750000), wk =   0.0099010
        k(   93) = (   0.2000000   0.2000000   0.8000000), wk =   0.0099010
        k(   94) = (   0.1750000   0.1750000   0.8250000), wk =   0.0099010
        k(   95) = (   0.1500000   0.1500000   0.8500000), wk =   0.0099010
        k(   96) = (   0.1250000   0.1250000   0.8750000), wk =   0.0099010
        k(   97) = (   0.1000000   0.1000000   0.9000000), wk =   0.0099010
        k(   98) = (   0.0750000   0.0750000   0.9250000), wk =   0.0099010
        k(   99) = (   0.0500000   0.0500000   0.9500000), wk =   0.0099010
        k(  100) = (   0.0250000   0.0250000   0.9750000), wk =   0.0099010
        k(  101) = (   0.0000000   0.0000000   1.0000000), wk =   0.0099010

                       cryst. coord.
        k(    1) = (   0.0000000   0.0000000   0.0000000), wk =   0.0099010
        k(    2) = (   0.0250000  -0.0250000  -0.0250000), wk =   0.0099010
        k(    3) = (   0.0500000  -0.0500000  -0.0500000), wk =   0.0099010
        k(    4) = (   0.0750000  -0.0750000  -0.0750000), wk =   0.0099010
        k(    5) = (   0.1000000  -0.1000000  -0.1000000), wk =   0.0099010
        k(    6) = (   0.1250000  -0.1250000  -0.1250000), wk =   0.0099010
        k(    7) = (   0.1500000  -0.1500000  -0.1500000), wk =   0.0099010
        k(    8) = (   0.1750000  -0.1750000  -0.1750000), wk =   0.0099010
        k(    9) = (   0.2000000  -0.2000000  -0.2000000), wk =   0.0099010
        k(   10) = (   0.2250000  -0.2250000  -0.2250000), wk =   0.0099010
        k(   11) = (   0.2500000  -0.2500000  -0.2500000), wk =   0.0099010
        k(   12) = (   0.2750000  -0.2750000  -0.2750000), wk =   0.0099010
        k(   13) = (   0.3000000  -0.3000000  -0.3000000), wk =   0.0099010
        k(   14) = (   0.3250000  -0.3250000  -0.3250000), wk =   0.0099010
        k(   15) = (   0.3500000  -0.3500000  -0.3500000), wk =   0.0099010
        k(   16) = (   0.3750000  -0.3750000  -0.3750000), wk =   0.0099010
        k(   17) = (   0.4000000  -0.4000000  -0.4000000), wk =   0.0099010
        k(   18) = (   0.4250000  -0.4250000  -0.4250000), wk =   0.0099010
        k(   19) = (   0.4500000  -0.4500000  -0.4500000), wk =   0.0099010
        k(   20) = (   0.4750000  -0.4750000  -0.4750000), wk =   0.0099010
        k(   21) = (   0.5000000  -0.5000000  -0.5000000), wk =   0.0099010
        k(   22) = (   0.5000000  -0.4750000  -0.5000000), wk =   0.0099010
        k(   23) = (   0.5000000  -0.4500000  -0.5000000), wk =   0.0099010
        k(   24) = (   0.5000000  -0.4250000  -0.5000000), wk =   0.0099010
        k(   25) = (   0.5000000  -0.4000000  -0.5000000), wk =   0.0099010
        k(   26) = (   0.5000000  -0.3750000  -0.5000000), wk =   0.0099010
        k(   27) = (   0.5000000  -0.3500000  -0.5000000), wk =   0.0099010
        k(   28) = (   0.5000000  -0.3250000  -0.5000000), wk =   0.0099010
        k(   29) = (   0.5000000  -0.3000000  -0.5000000), wk =   0.0099010
        k(   30) = (   0.5000000  -0.2750000  -0.5000000), wk =   0.0099010
        k(   31) = (   0.5000000  -0.2500000  -0.5000000), wk =   0.0099010
        k(   32) = (   0.5000000  -0.2250000  -0.5000000), wk =   0.0099010
        k(   33) = (   0.5000000  -0.2000000  -0.5000000), wk =   0.0099010
        k(   34) = (   0.5000000  -0.1750000  -0.5000000), wk =   0.0099010
        k(   35) = (   0.5000000  -0.1500000  -0.5000000), wk =   0.0099010
        k(   36) = (   0.5000000  -0.1250000  -0.5000000), wk =   0.0099010
        k(   37) = (   0.5000000  -0.1000000  -0.5000000), wk =   0.0099010
        k(   38) = (   0.5000000  -0.0750000  -0.5000000), wk =   0.0099010
        k(   39) = (   0.5000000  -0.0500000  -0.5000000), wk =   0.0099010
        k(   40) = (   0.5000000  -0.0250000  -0.5000000), wk =   0.0099010
        k(   41) = (   0.5000000   0.0000000  -0.5000000), wk =   0.0099010
        k(   42) = (   0.4750000   0.0000000  -0.4750000), wk =   0.0099010
        k(   43) = (   0.4500000   0.0000000  -0.4500000), wk =   0.0099010
        k(   44) = (   0.4250000   0.0000000  -0.4250000), wk =   0.0099010
        k(   45) = (   0.4000000   0.0000000  -0.4000000), wk =   0.0099010
        k(   46) = (   0.3750000   0.0000000  -0.3750000), wk =   0.0099010
        k(   47) = (   0.3500000   0.0000000  -0.3500000), wk =   0.0099010
        k(   48) = (   0.3250000   0.0000000  -0.3250000), wk =   0.0099010
        k(   49) = (   0.3000000   0.0000000  -0.3000000), wk =   0.0099010
        k(   50) = (   0.2750000   0.0000000  -0.2750000), wk =   0.0099010
        k(   51) = (   0.2500000   0.0000000  -0.2500000), wk =   0.0099010
        k(   52) = (   0.2250000   0.0000000  -0.2250000), wk =   0.0099010
        k(   53) = (   0.2000000   0.0000000  -0.2000000), wk =   0.0099010
        k(   54) = (   0.1750000   0.0000000  -0.1750000), wk =   0.0099010
        k(   55) = (   0.1500000   0.0000000  -0.1500000), wk =   0.0099010
        k(   56) = (   0.1250000   0.0000000  -0.1250000), wk =   0.0099010
        k(   57) = (   0.1000000   0.0000000  -0.1000000), wk =   0.0099010
        k(   58) = (   0.0750000   0.0000000  -0.0750000), wk =   0.0099010
        k(   59) = (   0.0500000   0.0000000  -0.0500000), wk =   0.0099010
        k(   60) = (   0.0250000   0.0000000  -0.0250000), wk =   0.0099010
        k(   61) = (   0.0000000   0.0000000   0.0000000), wk =   0.0099010
        k(   62) = (   0.0375000   0.0125000  -0.0125000), wk =   0.0099010
        k(   63) = (   0.0750000   0.0250000  -0.0250000), wk =   0.0099010
        k(   64) = (   0.1125000   0.0375000  -0.0375000), wk =   0.0099010
        k(   65) = (   0.1500000   0.0500000  -0.0500000), wk =   0.0099010
        k(   66) = (   0.1875000   0.0625000  -0.0625000), wk =   0.0099010
        k(   67) = (   0.2250000   0.0750000  -0.0750000), wk =   0.0099010
        k(   68) = (   0.2625000   0.0875000  -0.0875000), wk =   0.0099010
        k(   69) = (   0.3000000   0.1000000  -0.1000000), wk =   0.0099010
        k(   70) = (   0.3375000   0.1125000  -0.1125000), wk =   0.0099010
        k(   71) = (   0.3750000   0.1250000  -0.1250000), wk =   0.0099010
        k(   72) = (   0.4125000   0.1375000  -0.1375000), wk =   0.0099010
        k(   73) = (   0.4500000   0.1500000  -0.1500000), wk =   0.0099010
        k(   74) = (   0.4875000   0.1625000  -0.1625000), wk =   0.0099010
        k(   75) = (   0.5250000   0.1750000  -0.1750000), wk =   0.0099010
        k(   76) = (   0.5625000   0.1875000  -0.1875000), wk =   0.0099010
        k(   77) = (   0.6000000   0.2000000  -0.2000000), wk =   0.0099010
        k(   78) = (   0.6375000   0.2125000  -0.2125000), wk =   0.0099010
        k(   79) = (   0.6750000   0.2250000  -0.2250000), wk =   0.0099010
        k(   80) = (   0.7125000   0.2375000  -0.2375000), wk =   0.0099010
        k(   81) = (   0.7500000   0.2500000  -0.2500000), wk =   0.0099010
        k(   82) = (   0.7375000   0.2625000  -0.2125000), wk =   0.0099010
        k(   83) = (   0.7250000   0.2750000  -0.1750000), wk =   0.0099010
        k(   84) = (   0.7125000   0.2875000  -0.1375000), wk =   0.0099010
        k(   85) = (   0.7000000   0.3000000  -0.1000000), wk =   0.0099010
        k(   86) = (   0.6875000   0.3125000  -0.0625000), wk =   0.0099010
        k(   87) = (   0.6750000   0.3250000  -0.0250000), wk =   0.0099010
        k(   88) = (   0.6625000   0.3375000   0.0125000), wk =   0.0099010
        k(   89) = (   0.6500000   0.3500000   0.0500000), wk =   0.0099010
        k(   90) = (   0.6375000   0.3625000   0.0875000), wk =   0.0099010
        k(   91) = (   0.6250000   0.3750000   0.1250000), wk =   0.0099010
        k(   92) = (   0.6125000   0.3875000   0.1625000), wk =   0.0099010
        k(   93) = (   0.6000000   0.4000000   0.2000000), wk =   0.0099010
        k(   94) = (   0.5875000   0.4125000   0.2375000), wk =   0.0099010
        k(   95) = (   0.5750000   0.4250000   0.2750000), wk =   0.0099010
        k(   96) = (   0.5625000   0.4375000   0.3125000), wk =   0.0099010
        k(   97) = (   0.5500000   0.4500000   0.3500000), wk =   0.0099010
        k(   98) = (   0.5375000   0.4625000   0.3875000), wk =   0.0099010
        k(   99) = (   0.5250000   0.4750000   0.4250000), wk =   0.0099010
        k(  100) = (   0.5125000   0.4875000   0.4625000), wk =   0.0099010
        k(  101) = (   0.5000000   0.5000000   0.5000000), wk =   0.0099010

     Dense  grid:    49901 G-vectors     FFT dimensions: (  50,  50,  50)

     Smooth grid:    14771 G-vectors     FFT dimensions: (  36,  36,  36)

     Dynamical RAM for                 wfc:       0.04 MB

     Dynamical RAM for     wfc (w. buffer):       0.04 MB

     Dynamical RAM for           str. fact:       0.06 MB

     Dynamical RAM for           local pot:       0.00 MB

     Dynamical RAM for          nlocal pot:       0.04 MB

     Dynamical RAM for                qrad:       2.64 MB

     Dynamical RAM for          rho,v,vnew:       0.95 MB

     Dynamical RAM for           G-vectors:       0.25 MB

     Dynamical RAM for          h,s,v(r/c):       0.04 MB

     Dynamical RAM for          <psi|beta>:       0.00 MB

     Dynamical RAM for                 psi:       0.07 MB

     Dynamical RAM for                hpsi:       0.07 MB

     Dynamical RAM for                spsi:       0.07 MB

     Dynamical RAM for      wfcinit/wfcrot:       0.08 MB

     Dynamical RAM for           addusdens:      11.93 MB

     Estimated static dynamical RAM per process >       4.68 MB

     Estimated max dynamical RAM per process >      16.60 MB

     Estimated total dynamical RAM >     199.24 MB
     Generating pointlists ...
     new r_m :   0.3572 (alat units)  1.9645 (a.u.) for type    1

     The potential is recalculated from file :
     ./Fe.save/charge-density


     negative rho (up, down):  0.000E+00 4.783E-05
     Starting wfcs are   10 randomized atomic wfcs +    5 random wfcs
     Checking if some PAW data can be deallocated... 

     Band Structure Calculation
     Davidson diagonalization with overlap

     Computing kpt #:     1  of   202
     total cpu time spent up to now is        2.8 secs

     Computing kpt #:     2  of   202
     total cpu time spent up to now is        2.8 secs

     Computing kpt #:     3  of   202
     total cpu time spent up to now is        2.9 secs

     Computing kpt #:     4  of   202
     total cpu time spent up to now is        3.0 secs

     Computing kpt #:     5  of   202
     total cpu time spent up to now is        3.0 secs

     Computing kpt #:     6  of   202
     total cpu time spent up to now is        3.1 secs

     Computing kpt #:     7  of   202
     total cpu time spent up to now is        3.1 secs

     Computing kpt #:     8  of   202
     total cpu time spent up to now is        3.2 secs

     Computing kpt #:     9  of   202
     total cpu time spent up to now is        3.2 secs

     Computing kpt #:    10  of   202
     total cpu time spent up to now is        3.3 secs

     Computing kpt #:    11  of   202
     total cpu time spent up to now is        3.3 secs

     Computing kpt #:    12  of   202
     total cpu time spent up to now is        3.4 secs

     Computing kpt #:    13  of   202
     total cpu time spent up to now is        3.4 secs

     Computing kpt #:    14  of   202
     total cpu time spent up to now is        3.5 secs

     Computing kpt #:    15  of   202
     total cpu time spent up to now is        3.5 secs

     Computing kpt #:    16  of   202
     total cpu time spent up to now is        3.6 secs

     Computing kpt #:    17  of   202
     total cpu time spent up to now is        3.6 secs

     Computing kpt #:    18  of   202
     total cpu time spent up to now is        3.6 secs

     Computing kpt #:    19  of   202
     total cpu time spent up to now is        3.7 secs

     Computing kpt #:    20  of   202
     total cpu time spent up to now is        3.7 secs

     Computing kpt #:    21  of   202
     total cpu time spent up to now is        3.7 secs

     Computing kpt #:    22  of   202
     total cpu time spent up to now is        3.8 secs

     Computing kpt #:    23  of   202
     total cpu time spent up to now is        3.8 secs

     Computing kpt #:    24  of   202
     total cpu time spent up to now is        3.8 secs

     Computing kpt #:    25  of   202
     total cpu time spent up to now is        3.9 secs

     Computing kpt #:    26  of   202
     total cpu time spent up to now is        3.9 secs

     Computing kpt #:    27  of   202
     total cpu time spent up to now is        4.0 secs

     Computing kpt #:    28  of   202
     total cpu time spent up to now is        4.0 secs

     Computing kpt #:    29  of   202
     total cpu time spent up to now is        4.0 secs

     Computing kpt #:    30  of   202
     total cpu time spent up to now is        4.1 secs

     Computing kpt #:    31  of   202
     total cpu time spent up to now is        4.1 secs

     Computing kpt #:    32  of   202
     total cpu time spent up to now is        4.2 secs

     Computing kpt #:    33  of   202
     total cpu time spent up to now is        4.2 secs

     Computing kpt #:    34  of   202
     total cpu time spent up to now is        4.3 secs

     Computing kpt #:    35  of   202
     total cpu time spent up to now is        4.3 secs

     Computing kpt #:    36  of   202
     total cpu time spent up to now is        4.4 secs

     Computing kpt #:    37  of   202
     total cpu time spent up to now is        4.4 secs

     Computing kpt #:    38  of   202
     total cpu time spent up to now is        4.5 secs

     Computing kpt #:    39  of   202
     total cpu time spent up to now is        4.5 secs

     Computing kpt #:    40  of   202
     total cpu time spent up to now is        4.6 secs

     Computing kpt #:    41  of   202
     total cpu time spent up to now is        4.6 secs

     Computing kpt #:    42  of   202
     total cpu time spent up to now is        4.6 secs

     Computing kpt #:    43  of   202
     total cpu time spent up to now is        4.7 secs

     Computing kpt #:    44  of   202
     total cpu time spent up to now is        4.7 secs

     Computing kpt #:    45  of   202
     total cpu time spent up to now is        4.8 secs

     Computing kpt #:    46  of   202
     total cpu time spent up to now is        4.8 secs

     Computing kpt #:    47  of   202
     total cpu time spent up to now is        4.8 secs

     Computing kpt #:    48  of   202
     total cpu time spent up to now is        4.9 secs

     Computing kpt #:    49  of   202
     total cpu time spent up to now is        4.9 secs

     Computing kpt #:    50  of   202
     total cpu time spent up to now is        5.0 secs

     Computing kpt #:    51  of   202
     total cpu time spent up to now is        5.0 secs

     Computing kpt #:    52  of   202
     total cpu time spent up to now is        5.1 secs

     Computing kpt #:    53  of   202
     total cpu time spent up to now is        5.1 secs

     Computing kpt #:    54  of   202
     total cpu time spent up to now is        5.1 secs

     Computing kpt #:    55  of   202
     total cpu time spent up to now is        5.2 secs

     Computing kpt #:    56  of   202
     total cpu time spent up to now is        5.3 secs

     Computing kpt #:    57  of   202
     total cpu time spent up to now is        5.3 secs

     Computing kpt #:    58  of   202
     total cpu time spent up to now is        5.4 secs

     Computing kpt #:    59  of   202
     total cpu time spent up to now is        5.5 secs

     Computing kpt #:    60  of   202
     total cpu time spent up to now is        5.6 secs

     Computing kpt #:    61  of   202
     total cpu time spent up to now is        5.6 secs

     Computing kpt #:    62  of   202
     total cpu time spent up to now is        5.7 secs

     Computing kpt #:    63  of   202
     total cpu time spent up to now is        5.7 secs

     Computing kpt #:    64  of   202
     total cpu time spent up to now is        5.8 secs

     Computing kpt #:    65  of   202
     total cpu time spent up to now is        5.9 secs

     Computing kpt #:    66  of   202
     total cpu time spent up to now is        5.9 secs

     Computing kpt #:    67  of   202
     total cpu time spent up to now is        6.0 secs

     Computing kpt #:    68  of   202
     total cpu time spent up to now is        6.0 secs

     Computing kpt #:    69  of   202
     total cpu time spent up to now is        6.1 secs

     Computing kpt #:    70  of   202
     total cpu time spent up to now is        6.1 secs

     Computing kpt #:    71  of   202
     total cpu time spent up to now is        6.2 secs

     Computing kpt #:    72  of   202
     total cpu time spent up to now is        6.2 secs

     Computing kpt #:    73  of   202
     total cpu time spent up to now is        6.3 secs

     Computing kpt #:    74  of   202
     total cpu time spent up to now is        6.3 secs

     Computing kpt #:    75  of   202
     total cpu time spent up to now is        6.4 secs

     Computing kpt #:    76  of   202
     total cpu time spent up to now is        6.4 secs

     Computing kpt #:    77  of   202
     total cpu time spent up to now is        6.5 secs

     Computing kpt #:    78  of   202
     total cpu time spent up to now is        6.5 secs

     Computing kpt #:    79  of   202
     total cpu time spent up to now is        6.6 secs

     Computing kpt #:    80  of   202
     total cpu time spent up to now is        6.7 secs

     Computing kpt #:    81  of   202
     total cpu time spent up to now is        6.7 secs

     Computing kpt #:    82  of   202
     total cpu time spent up to now is        6.8 secs

     Computing kpt #:    83  of   202
     total cpu time spent up to now is        6.8 secs

     Computing kpt #:    84  of   202
     total cpu time spent up to now is        6.9 secs

     Computing kpt #:    85  of   202
     total cpu time spent up to now is        6.9 secs

     Computing kpt #:    86  of   202
     total cpu time spent up to now is        6.9 secs

     Computing kpt #:    87  of   202
     total cpu time spent up to now is        7.0 secs

     Computing kpt #:    88  of   202
     total cpu time spent up to now is        7.0 secs

     Computing kpt #:    89  of   202
     total cpu time spent up to now is        7.1 secs

     Computing kpt #:    90  of   202
     total cpu time spent up to now is        7.1 secs

     Computing kpt #:    91  of   202
     total cpu time spent up to now is        7.2 secs

     Computing kpt #:    92  of   202
     total cpu time spent up to now is        7.2 secs

     Computing kpt #:    93  of   202
     total cpu time spent up to now is        7.2 secs

     Computing kpt #:    94  of   202
     total cpu time spent up to now is        7.3 secs

     Computing kpt #:    95  of   202
     total cpu time spent up to now is        7.3 secs

     Computing kpt #:    96  of   202
     total cpu time spent up to now is        7.4 secs

     Computing kpt #:    97  of   202
     total cpu time spent up to now is        7.4 secs

     Computing kpt #:    98  of   202
     total cpu time spent up to now is        7.4 secs

     Computing kpt #:    99  of   202
     total cpu time spent up to now is        7.5 secs

     Computing kpt #:   100  of   202
     total cpu time spent up to now is        7.5 secs

     Computing kpt #:   101  of   202
     total cpu time spent up to now is        7.5 secs

     Computing kpt #:   102  of   202
     total cpu time spent up to now is        7.6 secs

     Computing kpt #:   103  of   202
     total cpu time spent up to now is        7.7 secs

     Computing kpt #:   104  of   202
     total cpu time spent up to now is        7.7 secs

     Computing kpt #:   105  of   202
     total cpu time spent up to now is        7.8 secs

     Computing kpt #:   106  of   202
     total cpu time spent up to now is        7.8 secs

     Computing kpt #:   107  of   202
     total cpu time spent up to now is        7.9 secs

     Computing kpt #:   108  of   202
     total cpu time spent up to now is        7.9 secs

     Computing kpt #:   109  of   202
     total cpu time spent up to now is        8.0 secs

     Computing kpt #:   110  of   202
     total cpu time spent up to now is        8.0 secs

     Computing kpt #:   111  of   202
     total cpu time spent up to now is        8.1 secs

     Computing kpt #:   112  of   202
     total cpu time spent up to now is        8.1 secs

     Computing kpt #:   113  of   202
     total cpu time spent up to now is        8.2 secs

     Computing kpt #:   114  of   202
     total cpu time spent up to now is        8.2 secs

     Computing kpt #:   115  of   202
     total cpu time spent up to now is        8.3 secs

     Computing kpt #:   116  of   202
     total cpu time spent up to now is        8.3 secs

     Computing kpt #:   117  of   202
     total cpu time spent up to now is        8.4 secs

     Computing kpt #:   118  of   202
     total cpu time spent up to now is        8.4 secs

     Computing kpt #:   119  of   202
     total cpu time spent up to now is        8.4 secs

     Computing kpt #:   120  of   202
     total cpu time spent up to now is        8.5 secs

     Computing kpt #:   121  of   202
     total cpu time spent up to now is        8.5 secs

     Computing kpt #:   122  of   202
     total cpu time spent up to now is        8.6 secs

     Computing kpt #:   123  of   202
     total cpu time spent up to now is        8.6 secs

     Computing kpt #:   124  of   202
     total cpu time spent up to now is        8.6 secs

     Computing kpt #:   125  of   202
     total cpu time spent up to now is        8.7 secs

     Computing kpt #:   126  of   202
     total cpu time spent up to now is        8.7 secs

     Computing kpt #:   127  of   202
     total cpu time spent up to now is        8.8 secs

     Computing kpt #:   128  of   202
     total cpu time spent up to now is        8.8 secs

     Computing kpt #:   129  of   202
     total cpu time spent up to now is        8.8 secs

     Computing kpt #:   130  of   202
     total cpu time spent up to now is        8.9 secs

     Computing kpt #:   131  of   202
     total cpu time spent up to now is        8.9 secs

     Computing kpt #:   132  of   202
     total cpu time spent up to now is        8.9 secs

     Computing kpt #:   133  of   202
     total cpu time spent up to now is        9.0 secs

     Computing kpt #:   134  of   202
     total cpu time spent up to now is        9.1 secs

     Computing kpt #:   135  of   202
     total cpu time spent up to now is        9.1 secs

     Computing kpt #:   136  of   202
     total cpu time spent up to now is        9.2 secs

     Computing kpt #:   137  of   202
     total cpu time spent up to now is        9.2 secs

     Computing kpt #:   138  of   202
     total cpu time spent up to now is        9.3 secs

     Computing kpt #:   139  of   202
     total cpu time spent up to now is        9.3 secs

     Computing kpt #:   140  of   202
     total cpu time spent up to now is        9.4 secs

     Computing kpt #:   141  of   202
     total cpu time spent up to now is        9.4 secs

     Computing kpt #:   142  of   202
     total cpu time spent up to now is        9.4 secs

     Computing kpt #:   143  of   202
     total cpu time spent up to now is        9.5 secs

     Computing kpt #:   144  of   202
     total cpu time spent up to now is        9.5 secs

     Computing kpt #:   145  of   202
     total cpu time spent up to now is        9.6 secs

     Computing kpt #:   146  of   202
     total cpu time spent up to now is        9.6 secs

     Computing kpt #:   147  of   202
     total cpu time spent up to now is        9.6 secs

     Computing kpt #:   148  of   202
     total cpu time spent up to now is        9.7 secs

     Computing kpt #:   149  of   202
     total cpu time spent up to now is        9.7 secs

     Computing kpt #:   150  of   202
     total cpu time spent up to now is        9.8 secs

     Computing kpt #:   151  of   202
     total cpu time spent up to now is        9.8 secs

     Computing kpt #:   152  of   202
     total cpu time spent up to now is        9.8 secs

     Computing kpt #:   153  of   202
     total cpu time spent up to now is        9.9 secs

     Computing kpt #:   154  of   202
     total cpu time spent up to now is        9.9 secs

     Computing kpt #:   155  of   202
     total cpu time spent up to now is       10.0 secs

     Computing kpt #:   156  of   202
     total cpu time spent up to now is       10.0 secs

     Computing kpt #:   157  of   202
     total cpu time spent up to now is       10.1 secs

     Computing kpt #:   158  of   202
     total cpu time spent up to now is       10.2 secs

     Computing kpt #:   159  of   202
     total cpu time spent up to now is       10.2 secs

     Computing kpt #:   160  of   202
     total cpu time spent up to now is       10.3 secs

     Computing kpt #:   161  of   202
     total cpu time spent up to now is       10.4 secs

     Computing kpt #:   162  of   202
     total cpu time spent up to now is       10.4 secs

     Computing kpt #:   163  of   202
     total cpu time spent up to now is       10.5 secs

     Computing kpt #:   164  of   202
     total cpu time spent up to now is       10.6 secs

     Computing kpt #:   165  of   202
     total cpu time spent up to now is       10.6 secs

     Computing kpt #:   166  of   202
     total cpu time spent up to now is       10.7 secs

     Computing kpt #:   167  of   202
     total cpu time spent up to now is       10.7 secs

     Computing kpt #:   168  of   202
     total cpu time spent up to now is       10.8 secs

     Computing kpt #:   169  of   202
     total cpu time spent up to now is       10.8 secs

     Computing kpt #:   170  of   202
     total cpu time spent up to now is       10.9 secs

     Computing kpt #:   171  of   202
     total cpu time spent up to now is       10.9 secs

     Computing kpt #:   172  of   202
     total cpu time spent up to now is       11.0 secs

     Computing kpt #:   173  of   202
     total cpu time spent up to now is       11.1 secs

     Computing kpt #:   174  of   202
     total cpu time spent up to now is       11.1 secs

     Computing kpt #:   175  of   202
     total cpu time spent up to now is       11.2 secs

     Computing kpt #:   176  of   202
     total cpu time spent up to now is       11.2 secs

     Computing kpt #:   177  of   202
     total cpu time spent up to now is       11.3 secs

     Computing kpt #:   178  of   202
     total cpu time spent up to now is       11.3 secs

     Computing kpt #:   179  of   202
     total cpu time spent up to now is       11.4 secs

     Computing kpt #:   180  of   202
     total cpu time spent up to now is       11.4 secs

     Computing kpt #:   181  of   202
     total cpu time spent up to now is       11.5 secs

     Computing kpt #:   182  of   202
     total cpu time spent up to now is       11.5 secs

     Computing kpt #:   183  of   202
     total cpu time spent up to now is       11.6 secs

     Computing kpt #:   184  of   202
     total cpu time spent up to now is       11.6 secs

     Computing kpt #:   185  of   202
     total cpu time spent up to now is       11.7 secs

     Computing kpt #:   186  of   202
     total cpu time spent up to now is       11.7 secs

     Computing kpt #:   187  of   202
     total cpu time spent up to now is       11.7 secs

     Computing kpt #:   188  of   202
     total cpu time spent up to now is       11.8 secs

     Computing kpt #:   189  of   202
     total cpu time spent up to now is       11.8 secs

     Computing kpt #:   190  of   202
     total cpu time spent up to now is       11.9 secs

     Computing kpt #:   191  of   202
     total cpu time spent up to now is       11.9 secs

     Computing kpt #:   192  of   202
     total cpu time spent up to now is       12.0 secs

     Computing kpt #:   193  of   202
     total cpu time spent up to now is       12.0 secs

     Computing kpt #:   194  of   202
     total cpu time spent up to now is       12.0 secs

     Computing kpt #:   195  of   202
     total cpu time spent up to now is       12.1 secs

     Computing kpt #:   196  of   202
     total cpu time spent up to now is       12.1 secs

     Computing kpt #:   197  of   202
     total cpu time spent up to now is       12.2 secs

     Computing kpt #:   198  of   202
     total cpu time spent up to now is       12.2 secs

     Computing kpt #:   199  of   202
     total cpu time spent up to now is       12.2 secs

     Computing kpt #:   200  of   202
     total cpu time spent up to now is       12.3 secs

     Computing kpt #:   201  of   202
     total cpu time spent up to now is       12.3 secs

     Computing kpt #:   202  of   202
     total cpu time spent up to now is       12.3 secs

     ethr =  6.25E-11,  avg # of iterations = 20.9

     total cpu time spent up to now is       12.4 secs

     End of band structure calculation

 ------ SPIN UP ------------


          k = 0.0000 0.0000 0.0000 (  1865 PWs)   bands (ev):

   -71.4936 -37.3481 -37.3481 -37.3481   8.4770  14.3723  14.3723  14.3723
    15.4331  15.4331  40.3229  40.3229  40.3229  45.1835  45.1835

          k = 0.0500 0.0000 0.0000 (  1865 PWs)   bands (ev):

   -71.4929 -37.3506 -37.3494 -37.3494   8.5260  14.3719  14.3719  14.3851
    15.4128  15.4412  39.9685  40.2773  40.2773  44.5569  45.6492

          k = 0.1000 0.0000 0.0000 (  1865 PWs)   bands (ev):

   -71.4909 -37.3581 -37.3533 -37.3533   8.6721  14.3715  14.3715  14.4230
    15.3521  15.4649  39.1616  40.0972  40.0972  43.4089  44.9677

          k = 0.1500 0.0000 0.0000 (  1853 PWs)   bands (ev):

   -71.4876 -37.3701 -37.3597 -37.3597   8.9122  14.3733  14.3733  14.4855
    15.2525  15.5034  38.2195  39.6803  39.6803  42.1638  44.4127

          k = 0.2000 0.0000 0.0000 (  1853 PWs)   bands (ev):

   -71.4831 -37.3860 -37.3685 -37.3685   9.2408  14.3805  14.3805  14.5709
    15.1159  15.5558  37.2816  38.9718  38.9718  40.9190  44.2884

          k = 0.2500 0.0000 0.0000 (  1845 PWs)   bands (ev):

   -71.4776 -37.4048 -37.3796 -37.3796   9.6496  14.3972  14.3972  14.6777
    14.9455  15.6223  36.4002  38.0369  38.0369  39.7192  44.5312

          k = 0.3000 0.0000 0.0000 (  1849 PWs)   bands (ev):

   -71.4713 -37.4256 -37.3926 -37.3926  10.1253  14.4280  14.4280  14.7453
    14.8032  15.7059  35.5953  36.9779  36.9779  38.5944  45.0367

          k = 0.3500 0.0000 0.0000 (  1837 PWs)   bands (ev):

   -71.4643 -37.4472 -37.4073 -37.4073  10.6482  14.4773  14.4773  14.5201
    14.9448  15.8163  34.8738  35.8658  35.8658  37.5668  45.7296

          k = 0.4000 0.0000 0.0000 (  1861 PWs)   bands (ev):

   -71.4569 -37.4688 -37.4234 -37.4234  11.1882  14.2757  14.5491  14.5491
    15.0990  15.9731  34.2362  34.7410  34.7410  36.6521  46.5646

          k = 0.4500 0.0000 0.0000 (  1858 PWs)   bands (ev):

   -71.4493 -37.4893 -37.4404 -37.4404  11.7018  14.0184  14.6468  14.6468
    15.2624  16.2117  33.6270  33.6270  33.6798  35.8600  47.5135

          k = 0.5000 0.0000 0.0000 (  1834 PWs)   bands (ev):

   -71.4416 -37.5080 -37.4580 -37.4580  12.1346  13.7550  14.7725  14.7725
    15.4311  16.5802  32.5389  32.5389  33.1998  35.1936  48.5574

          k = 0.5500 0.0000 0.0000 (  1846 PWs)   bands (ev):

   -71.4341 -37.5245 -37.4758 -37.4758  12.4391  13.4922  14.9267  14.9267
    15.6009  17.1230  31.4883  31.4883  32.7902  34.6490  48.3491

          k = 0.6000 0.0000 0.0000 (  1834 PWs)   bands (ev):

   -71.4269 -37.5384 -37.4933 -37.4933  12.6001  13.2370  15.1085  15.1085
    15.7675  17.8556  30.4857  30.4857  32.4449  34.2152  46.2221

          k = 0.6500 0.0000 0.0000 (  1846 PWs)   bands (ev):

   -71.4203 -37.5496 -37.5101 -37.5101  12.6383  12.9956  15.3144  15.3144
    15.9268  18.7595  29.5414  29.5414  32.1573  33.8744  44.1428

          k = 0.7000 0.0000 0.0000 (  1854 PWs)   bands (ev):

   -71.4143 -37.5582 -37.5257 -37.5257  12.5912  12.7740  15.5387  15.5387
    16.0746  19.8001  28.6672  28.6672  31.9216  33.6008  42.1480

          k = 0.7500 0.0000 0.0000 (  1846 PWs)   bands (ev):

   -71.4090 -37.5645 -37.5396 -37.5396  12.4953  12.5775  15.7721  15.7721
    16.2071  20.9411  27.8768  27.8768  31.7320  33.3590  40.2749

          k = 0.8000 0.0000 0.0000 (  1862 PWs)   bands (ev):

   -71.4046 -37.5688 -37.5517 -37.5517  12.3805  12.4105  16.0019  16.0019
    16.3206  22.1452  27.1865  27.1865  31.5837  33.0965  38.5805

          k = 0.8500 0.0000 0.0000 (  1878 PWs)   bands (ev):

   -71.4011 -37.5716 -37.5614 -37.5614  12.2695  12.2768  16.2118  16.2118
    16.4123  23.3654  26.6156  26.6156  31.4727  32.7372  37.1615

          k = 0.9000 0.0000 0.0000 (  1878 PWs)   bands (ev):

   -71.3986 -37.5733 -37.5685 -37.5685  12.1790  12.1792  16.3827  16.3827
    16.4797  24.5209  26.1855  26.1855  31.3957  32.2133  36.1456

          k = 0.9500 0.0000 0.0000 (  1878 PWs)   bands (ev):

   -71.3970 -37.5741 -37.5729 -37.5729  12.1199  12.1202  16.4953  16.4953
    16.5208  25.4444  25.9167  25.9167  31.3505  31.6222  35.5886

          k = 1.0000 0.0000 0.0000 (  1878 PWs)   bands (ev):

   -71.3965 -37.5744 -37.5744 -37.5744  12.0999  12.0999  16.5347  16.5347
    16.5347  25.8252  25.8252  25.8252  31.3356  31.3356  35.4205

          k = 0.9750 0.0250 0.0000 (  1878 PWs)   bands (ev):

   -71.3968 -37.5749 -37.5736 -37.5730  12.1099  12.1101  16.5065  16.5148
    16.5361  25.7283  25.7673  25.8711  31.3797  31.4550  35.5019

          k = 0.9500 0.0500 0.0000 (  1874 PWs)   bands (ev):

   -71.3975 -37.5764 -37.5715 -37.5689  12.1395  12.1407  16.4239  16.4558
    16.5405  25.4591  25.6062  26.0067  31.4984  31.7920  35.7469

          k = 0.9250 0.0750 0.0000 (  1874 PWs)   bands (ev):

   -71.3988 -37.5790 -37.5679 -37.5622  12.1872  12.1916  16.2926  16.3600
    16.5476  25.0648  25.3723  26.2269  31.6598  32.2997  36.1547

          k = 0.9000 0.1000 0.0000 (  1878 PWs)   bands (ev):

   -71.4005 -37.5824 -37.5630 -37.5530  12.2506  12.2629  16.1205  16.2312
    16.5573  24.5908  25.0996  26.5237  31.8336  32.9333  36.7180

          k = 0.8750 0.1250 0.0000 (  1864 PWs)   bands (ev):

   -71.4026 -37.5867 -37.5569 -37.5415  12.3261  12.3546  15.9168  16.0754
    16.5694  24.0701  24.8166  26.8884  32.0017  33.6605  37.4211

          k = 0.8500 0.1500 0.0000 (  1856 PWs)   bands (ev):

   -71.4051 -37.5918 -37.5497 -37.5280  12.4086  12.4668  15.6908  15.9009
    16.5836  23.5240  24.5431  27.3123  32.1582  34.4612  38.2418

          k = 0.8250 0.1750 0.0000 (  1852 PWs)   bands (ev):

   -71.4079 -37.5974 -37.5417 -37.5129  12.4911  12.5994  15.4511  15.7182
    16.5996  22.9658  24.2915  27.7872  32.3045  35.3229  39.1558

          k = 0.8000 0.2000 0.0000 (  1854 PWs)   bands (ev):

   -71.4109 -37.6035 -37.5330 -37.4966  12.5651  12.7524  15.2055  15.5404
    16.6169  22.4040  24.0679  28.3059  32.4447  36.2384  40.1378

          k = 0.7750 0.2250 0.0000 (  1844 PWs)   bands (ev):

   -71.4140 -37.6100 -37.5238 -37.4793  12.6202  12.9257  14.9605  15.3822
    16.6352  21.8442  23.8748  28.8624  32.5832  37.2031  41.1598

          k = 0.7500 0.2500 0.0000 (  1848 PWs)   bands (ev):

   -71.4173 -37.6166 -37.5144 -37.4615  12.6461  13.1192  14.7219  15.2578
    16.6540  21.2906  23.7115  29.4514  32.7235  38.2143  42.1835

          k = 0.7250 0.2750 0.0000 (  1848 PWs)   bands (ev):

   -71.4205 -37.6231 -37.5050 -37.4438  12.6351  13.3326  14.4943  15.1782
    16.6728  20.7460  23.5761  30.0685  32.8681  39.2700  43.1417

          k = 0.7000 0.3000 0.0000 (  1840 PWs)   bands (ev):

   -71.4237 -37.6296 -37.4958 -37.4264  12.5861  13.5654  14.2816  15.1470
    16.6912  20.2129  23.4658  30.7096  33.0183  40.3686  43.8972

          k = 0.6750 0.3250 0.0000 (  1846 PWs)   bands (ev):

   -71.4267 -37.6357 -37.4871 -37.4098  12.5054  13.8168  14.0872  15.1590
    16.7087  19.6935  23.3774  31.3708  33.1737  41.5080  43.7383

          k = 0.6500 0.3500 0.0000 (  1840 PWs)   bands (ev):

   -71.4295 -37.6413 -37.4790 -37.3946  12.4049  13.9138  14.0858  15.2031
    16.7250  19.1903  23.3080  32.0475  33.3327  42.6857  42.8007

          k = 0.6250 0.3750 0.0000 (  1842 PWs)   bands (ev):

   -71.4320 -37.6463 -37.4718 -37.3809  12.2977  13.7636  14.3702  15.2657
    16.7394  18.7062  23.2545  32.7337  33.4910  41.8934  43.6596

          k = 0.6000 0.4000 0.0000 (  1842 PWs)   bands (ev):

   -71.4341 -37.6506 -37.4656 -37.3692  12.1954  13.6383  14.6665  15.3342
    16.7518  18.2455  23.2145  33.4198  33.6423  41.0263  43.1763

          k = 0.5750 0.4250 0.0000 (  1842 PWs)   bands (ev):

   -71.4358 -37.6540 -37.4607 -37.3598  12.1072  13.5395  14.9675  15.3980
    16.7618  17.8162  23.1858  33.7777  34.0882  40.2170  42.7345

          k = 0.5500 0.4500 0.0000 (  1836 PWs)   bands (ev):

   -71.4370 -37.6565 -37.4571 -37.3528  12.0399  13.4682  15.2567  15.4491
    16.7691  17.4348  23.1666  33.8864  34.7020  39.5027  42.3878

          k = 0.5250 0.4750 0.0000 (  1834 PWs)   bands (ev):

   -71.4378 -37.6580 -37.4548 -37.3486  11.9979  13.4251  15.4820  15.4944
    16.7735  17.1419  23.1556  33.9574  35.1793  38.9650  42.1677

          k = 0.5000 0.5000 0.0000 (  1838 PWs)   bands (ev):

   -71.4380 -37.6586 -37.4541 -37.3472  11.9836  13.4107  15.4934  15.5953
    16.7750  17.0224  23.1520  33.9822  35.3720  38.7522  42.0923

          k = 0.4750 0.4750 0.0000 (  1836 PWs)   bands (ev):

   -71.4384 -37.6567 -37.4534 -37.3472  11.9822  13.4162  15.4873  15.5938
    16.7571  16.9155  23.3070  34.0115  35.4142  38.7572  42.0894

          k = 0.4500 0.4500 0.0000 (  1838 PWs)   bands (ev):

   -71.4394 -37.6511 -37.4515 -37.3472  11.9762  13.4327  15.4678  15.5892
    16.6291  16.7041  23.7407  34.0994  35.5400  38.7725  42.0812

          k = 0.4250 0.4250 0.0000 (  1838 PWs)   bands (ev):

   -71.4411 -37.6419 -37.4484 -37.3472  11.9603  13.4599  15.4294  15.5818
    16.2408  16.6182  24.3859  34.2450  35.7470  38.7980  42.0704

          k = 0.4000 0.4000 0.0000 (  1824 PWs)   bands (ev):

   -71.4433 -37.6293 -37.4440 -37.3472  11.9247  13.4971  15.3470  15.5721
    15.8473  16.5029  25.1798  34.4471  36.0317  38.8339  42.0607

          k = 0.3750 0.3750 0.0000 (  1840 PWs)   bands (ev):

   -71.4462 -37.6137 -37.4386 -37.3473  11.8547  13.5436  15.1416  15.5603
    15.5854  16.3625  26.0781  34.7038  36.3894  38.8804  42.0569

          k = 0.3500 0.3500 0.0000 (  1846 PWs)   bands (ev):

   -71.4495 -37.5954 -37.4323 -37.3474  11.7331  13.5985  14.8370  15.4760
    15.5472  16.2022  27.0516  35.0129  36.8149  38.9377  42.0642

          k = 0.3250 0.3250 0.0000 (  1846 PWs)   bands (ev):

   -71.4532 -37.5748 -37.4253 -37.3474  11.5455  13.6606  14.5689  15.4147
    15.5334  16.0272  28.0812  35.3714  37.3023  39.0061  42.0885

          k = 0.3000 0.3000 0.0000 (  1846 PWs)   bands (ev):

   -71.4573 -37.5524 -37.4176 -37.3475  11.2895  13.7284  14.3840  15.3675
    15.5193  15.8428  29.1534  35.7757  37.8461  39.0857  42.1356

          k = 0.2750 0.2750 0.0000 (  1854 PWs)   bands (ev):

   -71.4615 -37.5288 -37.4095 -37.3476  10.9788  13.8005  14.2813  15.3279
    15.5054  15.6543  30.2577  36.2216  38.4405  39.1765  42.2113

          k = 0.2500 0.2500 0.0000 (  1860 PWs)   bands (ev):

   -71.4659 -37.5046 -37.4012 -37.3476  10.6363  13.8752  14.2418  15.2964
    15.4664  15.4923  31.3851  36.7034  39.0800  39.2783  42.3217

          k = 0.2250 0.2250 0.0000 (  1856 PWs)   bands (ev):

   -71.4702 -37.4803 -37.3930 -37.3477  10.2847  13.9507  14.2433  15.2745
    15.2836  15.4803  32.5267  37.2139  39.3906  39.7598  42.4729

          k = 0.2000 0.2000 0.0000 (  1855 PWs)   bands (ev):

   -71.4744 -37.4565 -37.3848 -37.3478   9.9417  14.0251  14.2663  15.1099
    15.2646  15.4696  33.6728  37.7431  39.5123  40.4751  42.6711

          k = 0.1750 0.1750 0.0000 (  1855 PWs)   bands (ev):

   -71.4784 -37.4338 -37.3771 -37.3478   9.6205  14.0965  14.2966  14.9487
    15.2682  15.4603  34.8118  38.2773  39.6415  41.2217  42.9235

          k = 0.1500 0.1500 0.0000 (  1855 PWs)   bands (ev):

   -71.4822 -37.4129 -37.3700 -37.3479   9.3299  14.1631  14.3247  14.8032
    15.2851  15.4525  35.9291  38.7967  39.7752  41.9957  43.2376

          k = 0.1250 0.1250 0.0000 (  1859 PWs)   bands (ev):

   -71.4855 -37.3942 -37.3637 -37.3479   9.0763  14.2230  14.3461  14.6758
    15.3125  15.4462  37.0047  39.2744  39.9091  42.7939  43.6217

          k = 0.1000 0.1000 0.0000 (  1863 PWs)   bands (ev):

   -71.4883 -37.3781 -37.3582 -37.3480   8.8640  14.2746  14.3599  14.5688
    15.3459  15.4412  38.0112  39.6791  40.0371  43.6131  44.0703

          k = 0.0750 0.0750 0.0000 (  1861 PWs)   bands (ev):

   -71.4906 -37.3652 -37.3539 -37.3480   8.6961  14.3164  14.3675  14.4838
    15.3795  15.4376  38.9096  39.9844  40.1513  44.2584  44.4507

          k = 0.0500 0.0500 0.0000 (  1865 PWs)   bands (ev):

   -71.4922 -37.3558 -37.3507 -37.3480   8.5748  14.3471  14.3708  14.4222
    15.4078  15.4351  39.6452  40.1835  40.2427  44.5908  45.1686

          k = 0.0250 0.0250 0.0000 (  1865 PWs)   bands (ev):

   -71.4932 -37.3500 -37.3487 -37.3480   8.5015  14.3660  14.3720  14.3848
    15.4266  15.4336  40.1435  40.2901  40.3022  44.9780  45.2556

          k = 0.0000 0.0000 0.0000 (  1865 PWs)   bands (ev):

   -71.4936 -37.3481 -37.3481 -37.3481   8.4770  14.3723  14.3723  14.3723
    15.4331  15.4331  40.3229  40.3229  40.3229  45.1835  45.1835

          k = 0.0250 0.0250 0.0250 (  1865 PWs)   bands (ev):

   -71.4931 -37.3513 -37.3484 -37.3484   8.5138  14.3658  14.3658  14.3941
    15.4286  15.4286  40.1316  40.1316  40.3560  45.0895  45.0895

          k = 0.0500 0.0500 0.0500 (  1865 PWs)   bands (ev):

   -71.4916 -37.3608 -37.3494 -37.3494   8.6235  14.3456  14.3456  14.4595
    15.4165  15.4165  39.5897  39.5897  40.4552  44.4009  44.9810

          k = 0.0750 0.0750 0.0750 (  1865 PWs)   bands (ev):

   -71.4891 -37.3762 -37.3510 -37.3510   8.8043  14.3102  14.3102  14.5678
    15.4003  15.4003  38.7884  38.7884  40.6205  43.0002  45.0453

          k = 0.1000 0.1000 0.1000 (  1853 PWs)   bands (ev):

   -71.4858 -37.3964 -37.3534 -37.3534   9.0533  14.2579  14.2579  14.7184
    15.3849  15.3849  37.8355  37.8355  40.8520  41.5798  45.3040

          k = 0.1250 0.1250 0.1250 (  1856 PWs)   bands (ev):

   -71.4818 -37.4205 -37.3565 -37.3565   9.3658  14.1882  14.1882  14.9103
    15.3750  15.3750  36.8116  36.8116  40.1574  41.1496  45.7225

          k = 0.1500 0.1500 0.1500 (  1865 PWs)   bands (ev):

   -71.4773 -37.4473 -37.3605 -37.3605   9.7359  14.1024  14.1024  15.1428
    15.3736  15.3736  35.7657  35.7657  38.7482  41.5132  46.2555

          k = 0.1750 0.1750 0.1750 (  1853 PWs)   bands (ev):

   -71.4723 -37.4751 -37.3653 -37.3653  10.1558  14.0044  14.0044  15.3817
    15.3817  15.4157  34.7251  34.7251  37.3654  41.9429  46.7943

          k = 0.2000 0.2000 0.2000 (  1856 PWs)   bands (ev):

   -71.4672 -37.5027 -37.3710 -37.3710  10.6151  13.8992  13.8992  15.3984
    15.3984  15.7298  33.7057  33.7057  36.0208  42.4387  47.1556

          k = 0.2250 0.2250 0.2250 (  1853 PWs)   bands (ev):

   -71.4620 -37.5286 -37.3777 -37.3777  11.1009  13.7930  13.7930  15.4218
    15.4218  16.0877  32.7166  32.7166  34.7255  43.0004  47.4597

          k = 0.2500 0.2500 0.2500 (  1838 PWs)   bands (ev):

   -71.4570 -37.5513 -37.3853 -37.3853  11.5967  13.6913  13.6913  15.4497
    15.4497  16.4945  31.7633  31.7633  33.4900  43.6281  47.7871

          k = 0.2750 0.2750 0.2750 (  1844 PWs)   bands (ev):

   -71.4523 -37.5700 -37.3940 -37.3940  12.0825  13.5993  13.5993  15.4796
    15.4796  16.9586  30.8491  30.8491  32.3244  44.3217  48.1546

          k = 0.3000 0.3000 0.3000 (  1856 PWs)   bands (ev):

   -71.4481 -37.5836 -37.4035 -37.4035  12.5357  13.5211  13.5211  15.5096
    15.5096  17.4904  29.9762  29.9762  31.2384  45.0811  48.5684

          k = 0.3250 0.3250 0.3250 (  1865 PWs)   bands (ev):

   -71.4444 -37.5916 -37.4139 -37.4139  12.9337  13.4598  13.4598  15.5379
    15.5379  18.1014  29.1458  29.1458  30.2412  45.9063  49.0321

          k = 0.3500 0.3500 0.3500 (  1856 PWs)   bands (ev):

   -71.4413 -37.5935 -37.4250 -37.4250  13.2574  13.4174  13.4174  15.5632
    15.5632  18.8006  28.3589  28.3589  29.3406  46.7971  49.5483

          k = 0.3750 0.3750 0.3750 (  1838 PWs)   bands (ev):

   -71.4388 -37.5894 -37.4368 -37.4368  13.3950  13.3950  13.4952  15.5846
    15.5846  19.5918  27.6162  27.6162  28.5428  47.7535  50.1184

          k = 0.4000 0.4000 0.4000 (  1844 PWs)   bands (ev):

   -71.4370 -37.5797 -37.4491 -37.4491  13.3924  13.3924  13.6442  15.6014
    15.6014  20.4732  26.9184  26.9184  27.8518  48.7753  50.7427

          k = 0.4250 0.4250 0.4250 (  1838 PWs)   bands (ev):

   -71.4357 -37.5648 -37.4617 -37.4617  13.4083  13.4083  13.7097  15.6136
    15.6136  21.4377  26.2667  26.2667  27.2693  49.8624  51.4193

          k = 0.4500 0.4500 0.4500 (  1835 PWs)   bands (ev):

   -71.4350 -37.5458 -37.4745 -37.4745  13.4407  13.4407  13.7033  15.6214
    15.6214  22.4733  25.6625  25.6625  26.7968  51.0145  52.1430

          k = 0.4750 0.4750 0.4750 (  1824 PWs)   bands (ev):

   -71.4346 -37.5236 -37.4872 -37.4872  13.4861  13.4861  13.6407  15.6254
    15.6254  23.5561  25.1076  25.1076  26.4441  52.2314  52.9015

          k = 0.5000 0.5000 0.5000 (  1824 PWs)   bands (ev):

   -71.4345 -37.4996 -37.4996 -37.4996  13.5401  13.5401  13.5401  15.6264
    15.6264  24.6048  24.6048  24.6048  26.2768  53.5129  53.5129

          k = 0.4750 0.4750 0.5250 (  1824 PWs)   bands (ev):

   -71.4346 -37.5116 -37.5116 -37.4751  13.4204  13.5973  13.5973  15.6259
    15.6259  24.1572  24.1572  25.2506  26.6476  52.0723  52.0723

          k = 0.4500 0.4500 0.5500 (  1851 PWs)   bands (ev):

   -71.4346 -37.5229 -37.5229 -37.4516  13.2996  13.6511  13.6511  15.6256
    15.6256  23.7686  23.7686  25.3159  27.7186  50.4980  50.4980

          k = 0.4250 0.4250 0.5750 (  1839 PWs)   bands (ev):

   -71.4345 -37.5334 -37.5334 -37.4302  13.1941  13.6942  13.6942  15.6282
    15.6282  23.4431  23.4431  25.2477  29.0286  48.9243  48.9243

          k = 0.4000 0.4000 0.6000 (  1851 PWs)   bands (ev):

   -71.4341 -37.5429 -37.5429 -37.4122  13.1178  13.7188  13.7188  15.6365
    15.6365  23.1846  23.1846  25.1782  30.4324  47.3757  47.3757

          k = 0.3750 0.3750 0.6250 (  1845 PWs)   bands (ev):

   -71.4334 -37.5513 -37.5513 -37.3985  13.0818  13.7178  13.7178  15.6538
    15.6538  22.9964  22.9964  25.1282  31.8968  45.8652  45.8652

          k = 0.3500 0.3500 0.6500 (  1845 PWs)   bands (ev):

   -71.4322 -37.5585 -37.5585 -37.3900  13.0946  13.6857  13.6857  15.6830
    15.6830  22.8803  22.8803  25.1002  33.4066  44.4004  44.4004

          k = 0.3250 0.3250 0.6750 (  1845 PWs)   bands (ev):

   -71.4305 -37.5645 -37.5645 -37.3870  13.1618  13.6202  13.6202  15.7255
    15.7255  22.8364  22.8364  25.0928  34.9475  42.9859  42.9859

          k = 0.3000 0.3000 0.7000 (  1839 PWs)   bands (ev):

   -71.4283 -37.5693 -37.5693 -37.3896  13.2864  13.5223  13.5223  15.7814
    15.7814  22.8628  22.8628  25.1040  36.4981  41.6252  41.6252

          k = 0.2750 0.2750 0.7250 (  1842 PWs)   bands (ev):

   -71.4257 -37.5730 -37.5730 -37.3977  13.3963  13.3964  13.4683  15.8492
    15.8492  22.9559  22.9559  25.1315  38.0164  40.3207  40.3207

          k = 0.2500 0.2500 0.7500 (  1845 PWs)   bands (ev):

   -71.4226 -37.5756 -37.5756 -37.4106  13.2490  13.2490  13.7054  15.9261
    15.9261  23.1105  23.1105  25.1735  39.0748  39.0748  39.4003

          k = 0.2250 0.2250 0.7750 (  1839 PWs)   bands (ev):

   -71.4193 -37.5772 -37.5772 -37.4277  13.0879  13.0879  13.9922  16.0092
    16.0092  23.3202  23.3202  25.2282  37.8898  37.8898  40.3816

          k = 0.2000 0.2000 0.8000 (  1830 PWs)   bands (ev):

   -71.4157 -37.5780 -37.5780 -37.4478  12.9210  12.9210  14.3208  16.0953
    16.0953  23.5781  23.5781  25.2936  36.7689  36.7689  40.5315

          k = 0.1750 0.1750 0.8250 (  1836 PWs)   bands (ev):

   -71.4121 -37.5781 -37.5781 -37.4699  12.7558  12.7558  14.6799  16.1810
    16.1810  23.8765  23.8765  25.3679  35.7159  35.7159  39.9229

          k = 0.1500 0.1500 0.8500 (  1845 PWs)   bands (ev):

   -71.4085 -37.5778 -37.5778 -37.4925  12.5990  12.5990  15.0551  16.2633
    16.2633  24.2065  24.2065  25.4490  34.7365  34.7365  39.0192

          k = 0.1250 0.1250 0.8750 (  1851 PWs)   bands (ev):

   -71.4052 -37.5772 -37.5772 -37.5143  12.4566  12.4566  15.4290  16.3391
    16.3391  24.5571  24.5571  25.5340  33.8392  33.8392  38.0762

          k = 0.1000 0.1000 0.9000 (  1854 PWs)   bands (ev):

   -71.4023 -37.5764 -37.5764 -37.5343  12.3334  12.3334  15.7808  16.4057
    16.4057  24.9134  24.9134  25.6191  33.0372  33.0372  37.2037

          k = 0.0750 0.0750 0.9250 (  1872 PWs)   bands (ev):

   -71.3999 -37.5756 -37.5756 -37.5511  12.2335  12.2335  16.0881  16.4604
    16.4604  25.2538  25.2538  25.6985  32.3509  32.3509  36.4626

          k = 0.0500 0.0500 0.9500 (  1878 PWs)   bands (ev):

   -71.3980 -37.5750 -37.5750 -37.5638  12.1600  12.1600  16.3284  16.5011
    16.5011  25.5468  25.5468  25.7648  31.8112  31.8112  35.8970

          k = 0.0250 0.0250 0.9750 (  1878 PWs)   bands (ev):

   -71.3969 -37.5745 -37.5745 -37.5717  12.1151  12.1151  16.4819  16.5262
    16.5262  25.7510  25.7510  25.8094  31.4590  31.4591  35.5418

          k = 0.0000 0.0000 1.0000 (  1878 PWs)   bands (ev):

   -71.3965 -37.5744 -37.5744 -37.5744  12.0999  12.0999  16.5347  16.5347
    16.5347  25.8252  25.8252  25.8252  31.3356  31.3356  35.4205

 ------ SPIN DOWN ----------


          k = 0.0000 0.0000 0.0000 (  1865 PWs)   bands (ev):

   -68.7265 -34.6312 -34.6312 -34.6312   8.6135  16.3909  16.3909  16.3909
    18.3012  18.3012  40.0423  40.0423  40.0423  45.3667  45.3667

          k = 0.0500 0.0000 0.0000 (  1865 PWs)   bands (ev):

   -68.7258 -34.6341 -34.6326 -34.6326   8.6627  16.3885  16.3885  16.4052
    18.2737  18.3117  39.7395  40.0211  40.0211  44.8645  45.7890

          k = 0.1000 0.0000 0.0000 (  1865 PWs)   bands (ev):

   -68.7236 -34.6426 -34.6370 -34.6370   8.8097  16.3823  16.3824  16.4478
    18.1919  18.3424  39.0282  39.9261  39.9261  43.8064  45.7842

          k = 0.1500 0.0000 0.0000 (  1853 PWs)   bands (ev):

   -68.7199 -34.6562 -34.6441 -34.6441   9.0518  16.3752  16.3752  16.5178
    18.0577  18.3909  38.1804  39.6715  39.6715  42.5883  45.1057

          k = 0.2000 0.0000 0.0000 (  1853 PWs)   bands (ev):

   -68.7151 -34.6742 -34.6539 -34.6539   9.3849  16.3713  16.3713  16.6138
    17.8742  18.4538  37.3329  39.1680  39.1681  41.3441  44.8166

          k = 0.2500 0.0000 0.0000 (  1845 PWs)   bands (ev):

   -68.7090 -34.6955 -34.6661 -34.6661   9.8024  16.3760  16.3760  16.7337
    17.6461  18.5267  36.5415  38.4096  38.4096  40.1349  44.9238

          k = 0.3000 0.0000 0.0000 (  1849 PWs)   bands (ev):

   -68.7021 -34.7189 -34.6805 -34.6805  10.2953  16.3953  16.3953  16.8750
    17.3793  18.6063  35.8279  37.4710  37.4710  38.9995  45.3489

          k = 0.3500 0.0000 0.0000 (  1837 PWs)   bands (ev):

   -68.6944 -34.7433 -34.6968 -34.6968  10.8511  16.4348  16.4348  17.0345
    17.0811  18.6913  35.1989  36.4333  36.4333  37.9659  46.0051

          k = 0.4000 0.0000 0.0000 (  1861 PWs)   bands (ev):

   -68.6863 -34.7675 -34.7147 -34.7147  11.4520  16.5000  16.5000  16.7597
    17.2086  18.7860  34.6541  35.3514  35.3514  37.0544  46.8312

          k = 0.4500 0.0000 0.0000 (  1858 PWs)   bands (ev):

   -68.6779 -34.7905 -34.7336 -34.7336  12.0732  16.4240  16.5955  16.5955
    17.3933  18.9038  34.1890  34.2586  34.2587  36.2775  47.7878

          k = 0.5000 0.0000 0.0000 (  1834 PWs)   bands (ev):

   -68.6695 -34.8113 -34.7532 -34.7532  12.6800  16.0833  16.7244  16.7244
    17.5844  19.0709  33.1759  33.1760  33.7972  35.6399  48.8488

          k = 0.5500 0.0000 0.0000 (  1846 PWs)   bands (ev):

   -68.6613 -34.8296 -34.7729 -34.7729  13.2281  15.7464  16.8885  16.8885
    17.7771  19.3281  32.1179  32.1179  33.4711  35.1374  49.0473

          k = 0.6000 0.0000 0.0000 (  1834 PWs)   bands (ev):

   -68.6534 -34.8448 -34.7924 -34.7924  13.6703  15.4220  17.0879  17.0879
    17.9665  19.7232  31.0964  31.0964  33.2029  34.7567  46.9502

          k = 0.6500 0.0000 0.0000 (  1846 PWs)   bands (ev):

   -68.6461 -34.8570 -34.8110 -34.8110  13.9743  15.1177  17.3201  17.3201
    18.1479  20.2926  30.1226  30.1226  32.9851  34.4757  44.9051

          k = 0.7000 0.0000 0.0000 (  1854 PWs)   bands (ev):

   -68.6396 -34.8662 -34.8284 -34.8284  14.1389  14.8405  17.5800  17.5800
    18.3165  21.0421  29.2086  29.2086  32.8107  34.2638  42.9521

          k = 0.7500 0.0000 0.0000 (  1846 PWs)   bands (ev):

   -68.6338 -34.8728 -34.8440 -34.8440  14.1921  14.5962  17.8585  17.8585
    18.4679  21.9454  28.3687  28.3687  32.6737  34.0803  41.1316

          k = 0.8000 0.0000 0.0000 (  1862 PWs)   bands (ev):

   -68.6290 -34.8773 -34.8574 -34.8574  14.1740  14.3899  18.1417  18.1417
    18.5978  22.9545  27.6211  27.6211  32.5688  33.8701  39.5029

          k = 0.8500 0.0000 0.0000 (  1878 PWs)   bands (ev):

   -68.6252 -34.8801 -34.8682 -34.8682  14.1221  14.2255  18.4094  18.4095
    18.7028  24.0049  26.9890  26.9890  32.4916  33.5626  38.1590

          k = 0.9000 0.0000 0.0000 (  1878 PWs)   bands (ev):

   -68.6224 -34.8817 -34.8762 -34.8762  14.0655  14.1059  18.6352  18.6352
    18.7800  25.0001  26.5014  26.5014  32.4389  33.1120  37.2086

          k = 0.9500 0.0000 0.0000 (  1878 PWs)   bands (ev):

   -68.6208 -34.8824 -34.8810 -34.8810  14.0240  14.0333  18.7884  18.7884
    18.8272  25.7750  26.1904  26.1904  32.4082  32.6242  36.6871

          k = 1.0000 0.0000 0.0000 (  1878 PWs)   bands (ev):

   -68.6202 -34.8827 -34.8827 -34.8827  14.0089  14.0089  18.8430  18.8430
    18.8431  26.0831  26.0831  26.0831  32.3981  32.3981  36.5285

          k = 0.9750 0.0250 0.0000 (  1878 PWs)   bands (ev):

   -68.6205 -34.8833 -34.8818 -34.8811  14.0177  14.0200  18.8059  18.8154
    18.8447  26.0132  26.0464  26.1370  32.4319  32.4911  36.6056

          k = 0.9500 0.0500 0.0000 (  1874 PWs)   bands (ev):

   -68.6213 -34.8850 -34.8794 -34.8766  14.0442  14.0523  18.6983  18.7338
    18.8496  25.8143  25.9438  26.2950  32.5234  32.7595  36.8376

          k = 0.9250 0.0750 0.0000 (  1874 PWs)   bands (ev):

   -68.6227 -34.8879 -34.8754 -34.8691  14.0884  14.1040  18.5297  18.6027
    18.8577  25.5123  25.7947  26.5476  32.6494  33.1777  37.2249

          k = 0.9000 0.1000 0.0000 (  1878 PWs)   bands (ev):

   -68.6245 -34.8919 -34.8700 -34.8590  14.1503  14.1714  18.3132  18.4298
    18.8688  25.1364  25.6222  26.8824  32.7854  33.7172  37.7624

          k = 0.8750 0.1250 0.0000 (  1864 PWs)   bands (ev):

   -68.6268 -34.8969 -34.8632 -34.8462  14.2302  14.2489  18.0626  18.2266
    18.8825  24.7110  25.4459  27.2861  32.9151  34.3544  38.4372

          k = 0.8500 0.1500 0.0000 (  1856 PWs)   bands (ev):

   -68.6296 -34.9026 -34.8552 -34.8314  14.3282  14.3284  17.7902  18.0080
    18.8987  24.2544  25.2800  27.7468  33.0314  35.0719  39.2299

          k = 0.8250 0.1750 0.0000 (  1852 PWs)   bands (ev):

   -68.6326 -34.9091 -34.8462 -34.8146  14.3992  14.4444  17.5068  17.7926
    18.9168  23.7794  25.1323  28.2546  33.1342  35.8583  40.1174

          k = 0.8000 0.2000 0.0000 (  1854 PWs)   bands (ev):

   -68.6359 -34.9162 -34.8366 -34.7965  14.4473  14.5789  17.2211  17.6019
    18.9365  23.2947  25.0062  28.8016  33.2258  36.7058  41.0744

          k = 0.7750 0.2250 0.0000 (  1844 PWs)   bands (ev):

   -68.6393 -34.9235 -34.8263 -34.7773  14.4583  14.7317  16.9401  17.4573
    18.9573  22.8066  24.9020  29.3813  33.3097  37.6096  42.0714

          k = 0.7500 0.2500 0.0000 (  1848 PWs)   bands (ev):

   -68.6429 -34.9311 -34.8158 -34.7577  14.4211  14.9028  16.6695  17.3750
    18.9787  22.3197  24.8180  29.9889  33.3890  38.5661  43.0664

          k = 0.7250 0.2750 0.0000 (  1848 PWs)   bands (ev):

   -68.6464 -34.9387 -34.8053 -34.7379  14.3335  15.0921  16.4138  17.3610
    19.0001  21.8375  24.7520  30.6202  33.4660  39.5730  43.9836

          k = 0.7000 0.3000 0.0000 (  1840 PWs)   bands (ev):

   -68.6499 -34.9460 -34.7951 -34.7186  14.2043  15.2991  16.1770  17.4082
    19.0211  21.3629  24.7012  31.2717  33.5422  40.6280  44.6694

          k = 0.6750 0.3250 0.0000 (  1846 PWs)   bands (ev):

   -68.6531 -34.9530 -34.7853 -34.7003  14.0492  15.5231  15.9618  17.5011
    19.0410  20.8988  24.6630  31.9398  33.6183  41.7288  44.2083

          k = 0.6500 0.3500 0.0000 (  1840 PWs)   bands (ev):

   -68.6562 -34.9595 -34.7763 -34.6833  13.8850  15.7629  15.7708  17.6216
    19.0595  20.4479  24.6351  32.6208  33.6939  42.8722  43.2810

          k = 0.6250 0.3750 0.0000 (  1842 PWs)   bands (ev):

   -68.6589 -34.9652 -34.7682 -34.6681  13.7261  15.6060  16.0165  17.7527
    19.0759  20.0137  24.6152  33.3090  33.7676  42.3831  44.0528

          k = 0.6000 0.4000 0.0000 (  1842 PWs)   bands (ev):

   -68.6612 -34.9701 -34.7614 -34.6551  13.5836  15.4692  16.2799  17.8797
    19.0900  19.6011  24.6015  33.8367  33.9954  41.5243  43.7959

          k = 0.5750 0.4250 0.0000 (  1842 PWs)   bands (ev):

   -68.6630 -34.9741 -34.7558 -34.6446  13.4657  15.3614  16.5456  17.9909
    19.1014  19.2184  24.5926  33.8976  34.6632  40.7222  43.3799

          k = 0.5500 0.4500 0.0000 (  1836 PWs)   bands (ev):

   -68.6644 -34.9770 -34.7518 -34.6369  13.3779  15.2838  16.7975  18.0770
    18.8826  19.1097  24.5871  33.9458  35.2762  40.0130  43.0595

          k = 0.5250 0.4750 0.0000 (  1834 PWs)   bands (ev):

   -68.6652 -34.9787 -34.7493 -34.6322  13.3239  15.2369  16.9991  18.1314
    18.6305  19.1148  24.5842  33.9769  35.7534  39.4780  42.8586

          k = 0.5000 0.5000 0.0000 (  1838 PWs)   bands (ev):

   -68.6655 -34.9793 -34.7485 -34.6307  13.3056  15.2212  17.0821  18.1500
    18.5306  19.1165  24.5832  33.9877  35.9465  39.2657  42.7902

          k = 0.4750 0.4750 0.0000 (  1836 PWs)   bands (ev):

   -68.6659 -34.9772 -34.7477 -34.6307  13.2870  15.2279  17.0200  18.1492
    18.5282  19.0954  24.7050  34.0184  35.9918  39.2683  42.7851

          k = 0.4500 0.4500 0.0000 (  1838 PWs)   bands (ev):

   -68.6670 -34.9710 -34.7456 -34.6307  13.2278  15.2476  16.8543  18.1445
    18.5211  19.0330  25.0551  34.1101  36.1268  39.2761  42.7708

          k = 0.4250 0.4250 0.0000 (  1838 PWs)   bands (ev):

   -68.6688 -34.9607 -34.7421 -34.6307  13.1194  15.2800  16.6330  18.1331
    18.5099  18.9322  25.5965  34.2618  36.3484  39.2892  42.7505

          k = 0.4000 0.4000 0.0000 (  1824 PWs)   bands (ev):

   -68.6713 -34.9466 -34.7373 -34.6307  12.9507  15.3246  16.4088  18.1144
    18.4950  18.7976  26.2871  34.4718  36.6521  39.3077  42.7288

          k = 0.3750 0.3750 0.0000 (  1840 PWs)   bands (ev):

   -68.6744 -34.9292 -34.7314 -34.6307  12.7142  15.3804  16.2225  18.0898
    18.4773  18.6344  27.0908  34.7376  37.0322  39.3315  42.7117

          k = 0.3500 0.3500 0.0000 (  1846 PWs)   bands (ev):

   -68.6781 -34.9087 -34.7244 -34.6308  12.4121  15.4463  16.0954  18.0620
    18.4490  18.4577  27.9795  35.0562  37.4821  39.3610  42.7055

          k = 0.3250 0.3250 0.0000 (  1846 PWs)   bands (ev):

   -68.6822 -34.8856 -34.7166 -34.6308  12.0572  15.5209  16.0300  18.0337
    18.2479  18.4372  28.9322  35.4237  37.9951  39.3962  42.7172

          k = 0.3000 0.3000 0.0000 (  1846 PWs)   bands (ev):

   -68.6866 -34.8606 -34.7081 -34.6308  11.6684  15.6028  16.0167  18.0082
    18.0372  18.4166  29.9327  35.8355  38.5645  39.4370  42.7537

          k = 0.2750 0.2750 0.0000 (  1854 PWs)   bands (ev):

   -68.6913 -34.8341 -34.6992 -34.6309  11.2646  15.6900  16.0413  17.8229
    17.9889  18.3967  30.9678  36.2858  39.1838  39.4836  42.8220

          k = 0.2500 0.2500 0.0000 (  1860 PWs)   bands (ev):

   -68.6961 -34.8069 -34.6900 -34.6309  10.8621  15.7806  16.0894  17.6104
    17.9790  18.3781  32.0256  36.7676  39.5356  39.8471  42.9293

          k = 0.2250 0.2250 0.0000 (  1856 PWs)   bands (ev):

   -68.7008 -34.7796 -34.6809 -34.6310  10.4737  15.8724  16.1485  17.4046
    17.9815  18.3614  33.0945  37.2716  39.5927  40.5489  43.0832

          k = 0.2000 0.2000 0.0000 (  1855 PWs)   bands (ev):

   -68.7055 -34.7530 -34.6719 -34.6310  10.1087  15.9632  16.2086  17.2100
    17.9983  18.3469  34.1623  37.7853  39.6542  41.2842  43.2916

          k = 0.1750 0.1750 0.0000 (  1855 PWs)   bands (ev):

   -68.7099 -34.7276 -34.6634 -34.6310   9.7744  16.0507  16.2627  17.0300
    18.0294  18.3345  35.2145  38.2922  39.7189  42.0485  43.5631

          k = 0.1500 0.1500 0.0000 (  1855 PWs)   bands (ev):

   -68.7140 -34.7040 -34.6555 -34.6311   9.4762  16.1325  16.3068  16.8680
    18.0726  18.3245  36.2344  38.7702  39.7849  42.8378  43.9060

          k = 0.1250 0.1250 0.0000 (  1859 PWs)   bands (ev):

   -68.7176 -34.6830 -34.6485 -34.6311   9.2181  16.2062  16.3398  16.7266
    18.1238  18.3165  37.2009  39.1927  39.8500  43.6485  44.3150

          k = 0.1000 0.1000 0.0000 (  1863 PWs)   bands (ev):

   -68.7207 -34.6650 -34.6424 -34.6311   9.0032  16.2699  16.3626  16.6080
    18.1772  18.3105  38.0881  39.5342  39.9111  44.3754  44.4774

          k = 0.0750 0.0750 0.0000 (  1861 PWs)   bands (ev):

   -68.7232 -34.6505 -34.6376 -34.6311   8.8339  16.3216  16.3770  16.5140
    18.2266  18.3062  38.8635  39.7804  39.9645  44.5842  45.3211

          k = 0.0500 0.0500 0.0000 (  1865 PWs)   bands (ev):

   -68.7251 -34.6399 -34.6341 -34.6312   8.7118  16.3597  16.3854  16.4459
    18.2665  18.3033  39.4843  39.9357  40.0063  44.8994  45.6293

          k = 0.0250 0.0250 0.0000 (  1865 PWs)   bands (ev):

   -68.7262 -34.6334 -34.6319 -34.6312   8.6381  16.3831  16.3897  16.4047
    18.2923  18.3017  39.8962  40.0174  40.0331  45.2194  45.4562

          k = 0.0000 0.0000 0.0000 (  1865 PWs)   bands (ev):

   -68.7265 -34.6312 -34.6312 -34.6312   8.6135  16.3909  16.3909  16.3909
    18.3012  18.3012  40.0423  40.0423  40.0423  45.3667  45.3667

          k = 0.0250 0.0250 0.0250 (  1865 PWs)   bands (ev):

   -68.7260 -34.6348 -34.6315 -34.6315   8.6504  16.3824  16.3824  16.4150
    18.2949  18.2950  39.8901  39.8901  40.0755  45.3257  45.3257

          k = 0.0500 0.0500 0.0500 (  1865 PWs)   bands (ev):

   -68.7243 -34.6455 -34.6326 -34.6326   8.7608  16.3562  16.3562  16.4867
    18.2778  18.2778  39.4497  39.4497  40.1749  45.2841  45.2884

          k = 0.0750 0.0750 0.0750 (  1865 PWs)   bands (ev):

   -68.7216 -34.6627 -34.6345 -34.6345   8.9430  16.3112  16.3112  16.6053
    18.2537  18.2537  38.7738  38.7738  40.3405  43.8800  45.3818

          k = 0.1000 0.1000 0.1000 (  1853 PWs)   bands (ev):

   -68.7180 -34.6854 -34.6371 -34.6371   9.1945  16.2460  16.2460  16.7692
    18.2285  18.2285  37.9389  37.9389  40.5725  42.4506  45.6484

          k = 0.1250 0.1250 0.1250 (  1856 PWs)   bands (ev):

   -68.7136 -34.7125 -34.6407 -34.6407   9.5117  16.1601  16.1601  16.9764
    18.2079  18.2079  37.0149  37.0149  40.8706  41.0160  46.0687

          k = 0.1500 0.1500 0.1500 (  1865 PWs)   bands (ev):

   -68.7086 -34.7424 -34.6451 -34.6451   9.8899  16.0549  16.0549  17.2243
    18.1966  18.1966  36.0517  36.0517  39.5920  41.2350  46.5921

          k = 0.1750 0.1750 0.1750 (  1853 PWs)   bands (ev):

   -68.7031 -34.7736 -34.6505 -34.6505  10.3232  15.9335  15.9335  17.5103
    18.1972  18.1972  35.0810  35.0810  38.1923  41.6656  47.1101

          k = 0.2000 0.2000 0.2000 (  1856 PWs)   bands (ev):

   -68.6975 -34.8045 -34.6569 -34.6569  10.8041  15.8012  15.8012  17.8318
    18.2099  18.2100  34.1219  34.1219  36.8292  42.1624  47.4954

          k = 0.2250 0.2250 0.2250 (  1853 PWs)   bands (ev):

   -68.6918 -34.8335 -34.6644 -34.6644  11.3234  15.6639  15.6640  18.1866
    18.2336  18.2336  33.1865  33.1865  35.5141  42.7254  47.8064

          k = 0.2500 0.2500 0.2500 (  1838 PWs)   bands (ev):

   -68.6863 -34.8590 -34.6729 -34.6729  11.8697  15.5280  15.5280  18.2660
    18.2660  18.5738  32.2821  32.2821  34.2581  43.3545  48.1212

          k = 0.2750 0.2750 0.2750 (  1844 PWs)   bands (ev):

   -68.6811 -34.8799 -34.6826 -34.6826  12.4285  15.3991  15.3992  18.3043
    18.3043  18.9946  31.4134  31.4134  33.0721  44.0497  48.4668

          k = 0.3000 0.3000 0.3000 (  1856 PWs)   bands (ev):

   -68.6765 -34.8951 -34.6933 -34.6933  12.9821  15.2822  15.2822  18.3460
    18.3460  19.4530  30.5834  30.5834  31.9669  44.8110  48.8541

          k = 0.3250 0.3250 0.3250 (  1865 PWs)   bands (ev):

   -68.6724 -34.9040 -34.7049 -34.7049  13.5091  15.1808  15.1808  18.3885
    18.3886  19.9572  29.7938  29.7938  30.9531  45.6382  49.2886

          k = 0.3500 0.3500 0.3500 (  1856 PWs)   bands (ev):

   -68.6690 -34.9061 -34.7174 -34.7174  13.9856  15.0978  15.0978  18.4300
    18.4300  20.5188  29.0461  29.0461  30.0404  46.5314  49.7738

          k = 0.3750 0.3750 0.3750 (  1838 PWs)   bands (ev):

   -68.6663 -34.9016 -34.7307 -34.7307  14.3881  15.0347  15.0347  18.4686
    18.4686  21.1516  28.3410  28.3410  29.2367  47.4904  50.3117

          k = 0.4000 0.4000 0.4000 (  1844 PWs)   bands (ev):

   -68.6643 -34.8907 -34.7445 -34.7445  14.6980  14.9918  14.9918  18.5029
    18.5029  21.8678  27.6795  27.6795  28.5473  48.5152  50.9024

          k = 0.4250 0.4250 0.4250 (  1838 PWs)   bands (ev):

   -68.6629 -34.8741 -34.7586 -34.7586  14.9063  14.9688  14.9688  18.5317
    18.5317  22.6744  27.0627  27.0627  27.9745  49.6057  51.5434

          k = 0.4500 0.4500 0.4500 (  1835 PWs)   bands (ev):

   -68.6620 -34.8528 -34.7729 -34.7729  14.9643  14.9643  15.0160  18.5539
    18.5539  23.5693  26.4919  26.4919  27.5187  50.7616  52.2269

          k = 0.4750 0.4750 0.4750 (  1824 PWs)   bands (ev):

   -68.6616 -34.8280 -34.7872 -34.7872  14.9763  14.9763  15.0408  18.5682
    18.5683  24.5349  25.9694  25.9694  27.1858  51.9829  52.9272

          k = 0.5000 0.5000 0.5000 (  1824 PWs)   bands (ev):

   -68.6615 -34.8011 -34.8011 -34.8011  15.0019  15.0019  15.0019  18.5734
    18.5734  25.4981  25.4981  25.4981  27.0308  53.2694  53.2694

          k = 0.4750 0.4750 0.5250 (  1824 PWs)   bands (ev):

   -68.6616 -34.8145 -34.8145 -34.7737  14.9236  15.0377  15.0377  18.5677
    18.5677  25.0817  25.0817  26.1131  27.3788  51.9751  51.9751

          k = 0.4500 0.4500 0.5500 (  1851 PWs)   bands (ev):

   -68.6616 -34.8272 -34.8272 -34.7473  14.8300  15.0798  15.0798  18.5498
    18.5498  24.7242  24.7242  26.1877  28.4012  50.4501  50.4501

          k = 0.4250 0.4250 0.5750 (  1839 PWs)   bands (ev):

   -68.6615 -34.8388 -34.8388 -34.7233  14.7429  15.1234  15.1234  18.5188
    18.5188  24.4302  24.4302  26.1388  29.6624  48.9165  48.9165

          k = 0.4000 0.4000 0.6000 (  1851 PWs)   bands (ev):

   -68.6611 -34.8494 -34.8494 -34.7030  14.6806  15.1634  15.1634  18.4751
    18.4751  24.2031  24.2031  26.0878  31.0244  47.4065  47.4065

          k = 0.3750 0.3750 0.6250 (  1845 PWs)   bands (ev):

   -68.6603 -34.8587 -34.8587 -34.6876  14.6578  15.1939  15.1939  18.4216
    18.4216  24.0448  24.0449  26.0519  32.4548  45.9350  45.9350

          k = 0.3500 0.3500 0.6500 (  1845 PWs)   bands (ev):

   -68.6590 -34.8667 -34.8667 -34.6780  14.6853  15.2087  15.2087  18.3639
    18.3639  23.9550  23.9550  26.0324  33.9379  44.5105  44.5105

          k = 0.3250 0.3250 0.6750 (  1845 PWs)   bands (ev):

   -68.6572 -34.8733 -34.8733 -34.6745  14.7707  15.2017  15.2017  18.3098
    18.3099  23.9305  23.9305  26.0271  35.4595  43.1384  43.1384

          k = 0.3000 0.3000 0.7000 (  1839 PWs)   bands (ev):

   -68.6548 -34.8786 -34.8786 -34.6773  14.9185  15.1678  15.1678  18.2686
    18.2686  23.9660  23.9660  26.0331  36.9995  41.8229  41.8229

          k = 0.2750 0.2750 0.7250 (  1842 PWs)   bands (ev):

   -68.6520 -34.8825 -34.8825 -34.6862  15.1046  15.1046  15.1299  18.2481
    18.2482  24.0546  24.0546  26.0476  38.5205  40.5672  40.5672

          k = 0.2500 0.2500 0.7500 (  1845 PWs)   bands (ev):

   -68.6487 -34.8852 -34.8852 -34.7006  15.0128  15.0128  15.4036  18.2533
    18.2533  24.1885  24.1885  26.0676  39.3746  39.3746  39.9359

          k = 0.2250 0.2250 0.7750 (  1839 PWs)   bands (ev):

   -68.6450 -34.8869 -34.8869 -34.7196  14.8971  14.8971  15.7352  18.2849
    18.2849  24.3603  24.3603  26.0902  38.2483  38.2483  41.0174

          k = 0.2000 0.2000 0.8000 (  1830 PWs)   bands (ev):

   -68.6411 -34.8876 -34.8876 -34.7420  14.7645  14.7646  16.1172  18.3399
    18.3399  24.5622  24.5622  26.1122  37.1924  37.1924  41.3360

          k = 0.1750 0.1750 0.8250 (  1836 PWs)   bands (ev):

   -68.6372 -34.8876 -34.8876 -34.7665  14.6239  14.6239  16.5389  18.4128
    18.4128  24.7870  24.7870  26.1304  36.2118  36.2118  40.8406

          k = 0.1500 0.1500 0.8500 (  1845 PWs)   bands (ev):

   -68.6333 -34.8871 -34.8871 -34.7916  14.4837  14.4837  16.9857  18.4965
    18.4965  25.0270  25.0270  26.1421  35.3132  35.3132  39.9903

          k = 0.1250 0.1250 0.8750 (  1851 PWs)   bands (ev):

   -68.6297 -34.8862 -34.8862 -34.8159  14.3520  14.3520  17.4383  18.5835
    18.5836  25.2732  25.2732  26.1449  34.5056  34.5056  39.0808

          k = 0.1000 0.1000 0.9000 (  1854 PWs)   bands (ev):

   -68.6265 -34.8852 -34.8852 -34.8381  14.2354  14.2354  17.8730  18.6667
    18.6667  25.5144  25.5144  26.1381  33.8013  33.8013  38.2368

          k = 0.0750 0.0750 0.9250 (  1872 PWs)   bands (ev):

   -68.6239 -34.8842 -34.8842 -34.8568  14.1393  14.1393  18.2612  18.7391
    18.7392  25.7357  25.7357  26.1233  33.2169  33.2169  37.5227

          k = 0.0500 0.0500 0.9500 (  1878 PWs)   bands (ev):

   -68.6219 -34.8834 -34.8834 -34.8709  14.0678  14.0678  18.5713  18.7953
    18.7953  25.9181  25.9181  26.1047  32.7733  32.7733  36.9813

          k = 0.0250 0.0250 0.9750 (  1878 PWs)   bands (ev):

   -68.6206 -34.8829 -34.8829 -34.8797  14.0238  14.0238  18.7730  18.8309
    18.8309  26.0400  26.0400  26.0892  32.4939  32.4939  36.6434

          k = 0.0000 0.0000 1.0000 (  1878 PWs)   bands (ev):

   -68.6202 -34.8827 -34.8827 -34.8827  14.0089  14.0089  18.8430  18.8430
    18.8431  26.0831  26.0831  26.0831  32.3981  32.3981  36.5285

     Writing all to output data dir ./Fe.save/
 
     init_run     :      0.33s CPU      0.55s WALL (       1 calls)
     electrons    :      9.25s CPU      9.86s WALL (       1 calls)

     Called by init_run:
     wfcinit      :      0.00s CPU      0.01s WALL (       1 calls)
     wfcinit:atom :      0.01s CPU      0.01s WALL (     202 calls)
     wfcinit:wfcr :      0.51s CPU      0.57s WALL (     202 calls)
     potinit      :      0.15s CPU      0.19s WALL (       1 calls)
     hinit0       :      0.13s CPU      0.28s WALL (       1 calls)

     Called by electrons:
     c_bands      :      9.24s CPU      9.76s WALL (       1 calls)
     v_of_rho     :      0.02s CPU      0.02s WALL (       1 calls)
     v_h          :      0.00s CPU      0.00s WALL (       1 calls)
     v_xc         :      0.02s CPU      0.02s WALL (       1 calls)
     newd         :      0.02s CPU      0.03s WALL (       1 calls)
     PAW_pot      :      0.12s CPU      0.14s WALL (       1 calls)

     Called by c_bands:
     init_us_2    :      0.01s CPU      0.01s WALL (     202 calls)
     init_us_2:cp :      0.01s CPU      0.01s WALL (     202 calls)
     cegterg      :      8.60s CPU      8.90s WALL (     301 calls)

     Called by sum_band:

     Called by *egterg:
     cdiaghg      :      1.34s CPU      1.43s WALL (    4419 calls)
     cegterg:over :      0.68s CPU      0.71s WALL (    4217 calls)
     cegterg:upda :      0.14s CPU      0.15s WALL (    4217 calls)
     cegterg:last :      0.33s CPU      0.34s WALL (    2510 calls)
     h_psi        :      6.09s CPU      6.30s WALL (    4720 calls)
     s_psi        :      0.11s CPU      0.11s WALL (    4720 calls)
     g_psi        :      0.04s CPU      0.05s WALL (    4217 calls)

     Called by h_psi:
     h_psi:calbec :      0.28s CPU      0.29s WALL (    4720 calls)
     vloc_psi     :      5.66s CPU      5.85s WALL (    4720 calls)
     add_vuspsi   :      0.12s CPU      0.12s WALL (    4720 calls)

     General routines
     calbec       :      0.27s CPU      0.28s WALL (    4720 calls)
     fft          :      0.02s CPU      0.07s WALL (      23 calls)
     ffts         :      0.00s CPU      0.00s WALL (       2 calls)
     fftw         :      4.96s CPU      5.12s WALL (   82438 calls)
     interpolate  :      0.00s CPU      0.00s WALL (       2 calls)
     davcio       :      0.01s CPU      0.03s WALL (     404 calls)
 
     Parallel routines

     PAW routines
     PAW_pot      :      0.12s CPU      0.14s WALL (       1 calls)
 
     PWSCF        :     11.95s CPU     13.62s WALL

 
   This run was terminated on:  20:12:52   2Jul2024            

=------------------------------------------------------------------------------=
   JOB DONE.
=------------------------------------------------------------------------------=
