
     Program BANDS v.7.2 starts on  2Jul2024 at 20:12:53 

     This program is part of the open-source Quantum ESPRESSO suite
     for quantum simulation of materials; please cite
         "P. Giannozzi et al., J. Phys.:Condens. Matter 21 395502 (2009);
         "P. Giannozzi et al., J. Phys.:Condens. Matter 29 465901 (2017);
         "P. Giannozzi et al., J. Chem. Phys. 152 154105 (2020);
          URL http://www.quantum-espresso.org", 
     in publications or presentations arising from this work. More details at
     http://www.quantum-espresso.org/quote

     Parallel version (MPI), running on    10 processors

     MPI processes distributed on     1 nodes
     R & G space division:  proc/nbgrp/npool/nimage =      10
     30333 MiB available memory on the printing compute node when the environment starts
 

     Reading xml data from directory:

     ./Fe.save/
     file Fe.pbe-spn-kjpaw_psl.1.0.0.UPF: wavefunction(s)  3P 3D renormalized

     IMPORTANT: XC functional enforced from input :
     Exchange-correlation= PBE
                           (   1   4   3   4   0   0   0)
     Any further DFT definition will be discarded
     Please, verify this is what you really want

 
     Parallelization info
     --------------------
     sticks:   dense  smooth     PW     G-vecs:    dense   smooth      PW
     Min         182      81     24                 4988     1476     248
     Max         183      82     25                 4992     1478     250
     Sum        1829     817    249                49901    14771    2491
 
     Using Slab Decomposition
 

     negative rho (up, down):  0.000E+00 4.783E-05
     Reading collected, re-writing distributed wavefunctions
     high-symmetry point:  0.0000 0.0000 0.0000   x coordinate   0.0000
     high-symmetry point:  1.0000 0.0000 0.0000   x coordinate   1.0000
     high-symmetry point:  0.5000 0.5000 0.0000   x coordinate   1.7071
     high-symmetry point:  0.0000 0.0000 0.0000   x coordinate   2.4142
     high-symmetry point:  0.5000 0.5000 0.5000   x coordinate   3.2802
     high-symmetry point:  0.0000 0.0000 1.0000   x coordinate   4.1463

     Plottable bands (eV) written to file bands_dn.dat.gnu
     Bands written to file bands_dn.dat

 **************************************************************************

                    xk=(   0.00000,   0.00000,   0.00000  )

     point group C_1 (1)    
     there are  1 classes
     the character table:

       E    
A      1.00

     the symmetry operations in each class and the name of the first element:

     E        1
                                                                 

     Band symmetry, C_1 (1)     point group:

     e(  1 -  1) =    -68.72654  eV     1   --> A              
     e(  2 -  4) =    -34.63118  eV     3   -->   3 A              
     e(  5 -  5) =      8.61346  eV     1   --> A              
     e(  6 -  8) =     16.39093  eV     3   -->   3 A              
     e(  9 - 10) =     18.30117  eV     2   -->   2 A              
     e( 11 - 13) =     40.04234  eV     3   -->   3 A              
     e( 14 - 15) =     45.36669  eV     2   -->   2 A              

 **************************************************************************

 **************************************************************************

                    xk=(   0.05000,   0.00000,   0.00000  )

     Band symmetry, C_1 (1)     point group:

     e(  1 -  1) =    -68.72579  eV     1   --> A              
     e(  2 -  2) =    -34.63408  eV     1   --> A              
     e(  3 -  4) =    -34.63264  eV     2   -->   2 A              
     e(  5 -  5) =      8.66271  eV     1   --> A              
     e(  6 -  7) =     16.38854  eV     2   -->   2 A              
     e(  8 -  8) =     16.40522  eV     1   --> A              
     e(  9 -  9) =     18.27371  eV     1   --> A              
     e( 10 - 10) =     18.31168  eV     1   --> A              
     e( 11 - 11) =     39.73953  eV     1   --> A              
     e( 12 - 13) =     40.02109  eV     2   -->   2 A              
     e( 14 - 14) =     44.86446  eV     1   --> A              
     e( 15 - 15) =     45.78896  eV     1   --> A              

 **************************************************************************

 **************************************************************************

                    xk=(   0.10000,   0.00000,   0.00000  )

     Band symmetry, C_1 (1)     point group:

     e(  1 -  1) =    -68.72357  eV     1   --> A              
     e(  2 -  2) =    -34.64261  eV     1   --> A              
     e(  3 -  4) =    -34.63697  eV     2   -->   2 A              
     e(  5 -  5) =      8.80966  eV     1   --> A              
     e(  6 -  7) =     16.38234  eV     2   -->   2 A              
     e(  8 -  8) =     16.44781  eV     1   --> A              
     e(  9 -  9) =     18.19193  eV     1   --> A              
     e( 10 - 10) =     18.34238  eV     1   --> A              
     e( 11 - 11) =     39.02821  eV     1   --> A              
     e( 12 - 13) =     39.92612  eV     2   -->   2 A              
     e( 14 - 14) =     43.80639  eV     1   --> A              
     e( 15 - 15) =     45.78416  eV     1   --> A              

 **************************************************************************

 **************************************************************************

                    xk=(   0.15000,   0.00000,   0.00000  )

     Band symmetry, C_1 (1)     point group:

     e(  1 -  1) =    -68.71995  eV     1   --> A              
     e(  2 -  2) =    -34.65622  eV     1   --> A              
     e(  3 -  4) =    -34.64409  eV     2   -->   2 A              
     e(  5 -  5) =      9.05182  eV     1   --> A              
     e(  6 -  7) =     16.37518  eV     2   -->   2 A              
     e(  8 -  8) =     16.51782  eV     1   --> A              
     e(  9 -  9) =     18.05769  eV     1   --> A              
     e( 10 - 10) =     18.39094  eV     1   --> A              
     e( 11 - 11) =     38.18038  eV     1   --> A              
     e( 12 - 13) =     39.67154  eV     2   -->   2 A              
     e( 14 - 14) =     42.58830  eV     1   --> A              
     e( 15 - 15) =     45.10567  eV     1   --> A              

 **************************************************************************

 **************************************************************************

                    xk=(   0.20000,   0.00000,   0.00000  )

     Band symmetry, C_1 (1)     point group:

     e(  1 -  1) =    -68.71505  eV     1   --> A              
     e(  2 -  2) =    -34.67421  eV     1   --> A              
     e(  3 -  4) =    -34.65387  eV     2   -->   2 A              
     e(  5 -  5) =      9.38486  eV     1   --> A              
     e(  6 -  7) =     16.37128  eV     2   -->   2 A              
     e(  8 -  8) =     16.61379  eV     1   --> A              
     e(  9 -  9) =     17.87423  eV     1   --> A              
     e( 10 - 10) =     18.45376  eV     1   --> A              
     e( 11 - 11) =     37.33294  eV     1   --> A              
     e( 12 - 13) =     39.16805  eV     2   -->   2 A              
     e( 14 - 14) =     41.34405  eV     1   --> A              
     e( 15 - 15) =     44.81656  eV     1   --> A              

 **************************************************************************

 **************************************************************************

                    xk=(   0.25000,   0.00000,   0.00000  )

     Band symmetry, C_1 (1)     point group:

     e(  1 -  1) =    -68.70904  eV     1   --> A              
     e(  2 -  2) =    -34.69549  eV     1   --> A              
     e(  3 -  4) =    -34.66609  eV     2   -->   2 A              
     e(  5 -  5) =      9.80239  eV     1   --> A              
     e(  6 -  7) =     16.37604  eV     2   -->   2 A              
     e(  8 -  8) =     16.73371  eV     1   --> A              
     e(  9 -  9) =     17.64611  eV     1   --> A              
     e( 10 - 10) =     18.52672  eV     1   --> A              
     e( 11 - 11) =     36.54152  eV     1   --> A              
     e( 12 - 13) =     38.40961  eV     2   -->   2 A              
     e( 14 - 14) =     40.13489  eV     1   --> A              
     e( 15 - 15) =     44.92377  eV     1   --> A              

 **************************************************************************

 **************************************************************************

                    xk=(   0.30000,   0.00000,   0.00000  )

     Band symmetry, C_1 (1)     point group:

     e(  1 -  1) =    -68.70210  eV     1   --> A              
     e(  2 -  2) =    -34.71894  eV     1   --> A              
     e(  3 -  4) =    -34.68051  eV     2   -->   2 A              
     e(  5 -  5) =     10.29534  eV     1   --> A              
     e(  6 -  7) =     16.39526  eV     2   -->   2 A              
     e(  8 -  8) =     16.87495  eV     1   --> A              
     e(  9 -  9) =     17.37931  eV     1   --> A              
     e( 10 - 10) =     18.60626  eV     1   --> A              
     e( 11 - 11) =     35.82787  eV     1   --> A              
     e( 12 - 13) =     37.47099  eV     2   -->   2 A              
     e( 14 - 14) =     38.99952  eV     1   --> A              
     e( 15 - 15) =     45.34888  eV     1   --> A              

 **************************************************************************

 **************************************************************************

                    xk=(   0.35000,   0.00000,   0.00000  )

     Band symmetry, C_1 (1)     point group:

     e(  1 -  1) =    -68.69444  eV     1   --> A              
     e(  2 -  2) =    -34.74331  eV     1   --> A              
     e(  3 -  4) =    -34.69680  eV     2   -->   2 A              
     e(  5 -  5) =     10.85111  eV     1   --> A              
     e(  6 -  7) =     16.43483  eV     2   -->   2 A              
     e(  8 -  8) =     17.03446  eV     1   --> A              
     e(  9 -  9) =     17.08111  eV     1   --> A              
     e( 10 - 10) =     18.69132  eV     1   --> A              
     e( 11 - 11) =     35.19888  eV     1   --> A              
     e( 12 - 13) =     36.43326  eV     2   -->   2 A              
     e( 14 - 14) =     37.96595  eV     1   --> A              
     e( 15 - 15) =     46.00515  eV     1   --> A              

 **************************************************************************

 **************************************************************************

                    xk=(   0.40000,   0.00000,   0.00000  )

     Band symmetry, C_1 (1)     point group:

     e(  1 -  1) =    -68.68632  eV     1   --> A              
     e(  2 -  2) =    -34.76753  eV     1   --> A              
     e(  3 -  4) =    -34.71466  eV     2   -->   2 A              
     e(  5 -  5) =     11.45203  eV     1   --> A              
     e(  6 -  7) =     16.50003  eV     2   -->   2 A              
     e(  8 -  8) =     16.75969  eV     1   --> A              
     e(  9 -  9) =     17.20856  eV     1   --> A              
     e( 10 - 10) =     18.78602  eV     1   --> A              
     e( 11 - 11) =     34.65405  eV     1   --> A              
     e( 12 - 13) =     35.35138  eV     2   -->   2 A              
     e( 14 - 14) =     37.05435  eV     1   --> A              
     e( 15 - 15) =     46.83124  eV     1   --> A              

 **************************************************************************

 **************************************************************************

                    xk=(   0.45000,   0.00000,   0.00000  )

     Band symmetry, C_1 (1)     point group:

     e(  1 -  1) =    -68.67792  eV     1   --> A              
     e(  2 -  2) =    -34.79049  eV     1   --> A              
     e(  3 -  4) =    -34.73359  eV     2   -->   2 A              
     e(  5 -  5) =     12.07319  eV     1   --> A              
     e(  6 -  6) =     16.42404  eV     1   --> A              
     e(  7 -  8) =     16.59545  eV     2   -->   2 A              
     e(  9 -  9) =     17.39335  eV     1   --> A              
     e( 10 - 10) =     18.90377  eV     1   --> A              
     e( 11 - 11) =     34.18900  eV     1   --> A              
     e( 12 - 13) =     34.25865  eV     2   -->   2 A              
     e( 14 - 14) =     36.27748  eV     1   --> A              
     e( 15 - 15) =     47.78781  eV     1   --> A              

 **************************************************************************

 **************************************************************************

                    xk=(   0.50000,   0.00000,   0.00000  )

     Band symmetry, C_1 (1)     point group:

     e(  1 -  1) =    -68.66950  eV     1   --> A              
     e(  2 -  2) =    -34.81134  eV     1   --> A              
     e(  3 -  4) =    -34.75315  eV     2   -->   2 A              
     e(  5 -  5) =     12.68002  eV     1   --> A              
     e(  6 -  6) =     16.08330  eV     1   --> A              
     e(  7 -  8) =     16.72439  eV     2   -->   2 A              
     e(  9 -  9) =     17.58442  eV     1   --> A              
     e( 10 - 10) =     19.07093  eV     1   --> A              
     e( 11 - 12) =     33.17595  eV     2   -->   2 A              
     e( 13 - 13) =     33.79719  eV     1   --> A              
     e( 14 - 14) =     35.63993  eV     1   --> A              
     e( 15 - 15) =     48.84883  eV     1   --> A              

 **************************************************************************

 **************************************************************************

                    xk=(   0.55000,   0.00000,   0.00000  )

     Band symmetry, C_1 (1)     point group:

     e(  1 -  1) =    -68.66127  eV     1   --> A              
     e(  2 -  2) =    -34.82960  eV     1   --> A              
     e(  3 -  4) =    -34.77294  eV     2   -->   2 A              
     e(  5 -  5) =     13.22809  eV     1   --> A              
     e(  6 -  6) =     15.74643  eV     1   --> A              
     e(  7 -  8) =     16.88852  eV     2   -->   2 A              
     e(  9 -  9) =     17.77705  eV     1   --> A              
     e( 10 - 10) =     19.32809  eV     1   --> A              
     e( 11 - 12) =     32.11789  eV     2   -->   2 A              
     e( 13 - 13) =     33.47106  eV     1   --> A              
     e( 14 - 14) =     35.13742  eV     1   --> A              
     e( 15 - 15) =     49.04734  eV     1   --> A              

 **************************************************************************

 **************************************************************************

                    xk=(   0.60000,   0.00000,   0.00000  )

     Band symmetry, C_1 (1)     point group:

     e(  1 -  1) =    -68.65343  eV     1   --> A              
     e(  2 -  2) =    -34.84482  eV     1   --> A              
     e(  3 -  4) =    -34.79239  eV     2   -->   2 A              
     e(  5 -  5) =     13.67033  eV     1   --> A              
     e(  6 -  6) =     15.42198  eV     1   --> A              
     e(  7 -  8) =     17.08790  eV     2   -->   2 A              
     e(  9 -  9) =     17.96652  eV     1   --> A              
     e( 10 - 10) =     19.72319  eV     1   --> A              
     e( 11 - 12) =     31.09638  eV     2   -->   2 A              
     e( 13 - 13) =     33.20287  eV     1   --> A              
     e( 14 - 14) =     34.75671  eV     1   --> A              
     e( 15 - 15) =     46.95021  eV     1   --> A              

 **************************************************************************

 **************************************************************************

                    xk=(   0.65000,   0.00000,   0.00000  )

     Band symmetry, C_1 (1)     point group:

     e(  1 -  1) =    -68.64615  eV     1   --> A              
     e(  2 -  2) =    -34.85700  eV     1   --> A              
     e(  3 -  4) =    -34.81105  eV     2   -->   2 A              
     e(  5 -  5) =     13.97432  eV     1   --> A              
     e(  6 -  6) =     15.11768  eV     1   --> A              
     e(  7 -  8) =     17.32014  eV     2   -->   2 A              
     e(  9 -  9) =     18.14790  eV     1   --> A              
     e( 10 - 10) =     20.29255  eV     1   --> A              
     e( 11 - 12) =     30.12260  eV     2   -->   2 A              
     e( 13 - 13) =     32.98506  eV     1   --> A              
     e( 14 - 14) =     34.47571  eV     1   --> A              
     e( 15 - 15) =     44.90510  eV     1   --> A              

 **************************************************************************

 **************************************************************************

                    xk=(   0.70000,   0.00000,   0.00000  )

     Band symmetry, C_1 (1)     point group:

     e(  1 -  1) =    -68.63957  eV     1   --> A              
     e(  2 -  2) =    -34.86623  eV     1   --> A              
     e(  3 -  4) =    -34.82841  eV     2   -->   2 A              
     e(  5 -  5) =     14.13893  eV     1   --> A              
     e(  6 -  6) =     14.84046  eV     1   --> A              
     e(  7 -  8) =     17.58001  eV     2   -->   2 A              
     e(  9 -  9) =     18.31649  eV     1   --> A              
     e( 10 - 10) =     21.04211  eV     1   --> A              
     e( 11 - 12) =     29.20860  eV     2   -->   2 A              
     e( 13 - 13) =     32.81074  eV     1   --> A              
     e( 14 - 14) =     34.26382  eV     1   --> A              
     e( 15 - 15) =     42.95211  eV     1   --> A              

 **************************************************************************

 **************************************************************************

                    xk=(   0.75000,   0.00000,   0.00000  )

     Band symmetry, C_1 (1)     point group:

     e(  1 -  1) =    -68.63383  eV     1   --> A              
     e(  2 -  2) =    -34.87282  eV     1   --> A              
     e(  3 -  4) =    -34.84397  eV     2   -->   2 A              
     e(  5 -  5) =     14.19214  eV     1   --> A              
     e(  6 -  6) =     14.59624  eV     1   --> A              
     e(  7 -  8) =     17.85854  eV     2   -->   2 A              
     e(  9 -  9) =     18.46785  eV     1   --> A              
     e( 10 - 10) =     21.94535  eV     1   --> A              
     e( 11 - 12) =     28.36872  eV     2   -->   2 A              
     e( 13 - 13) =     32.67374  eV     1   --> A              
     e( 14 - 14) =     34.08030  eV     1   --> A              
     e( 15 - 15) =     41.13161  eV     1   --> A              

 **************************************************************************

 **************************************************************************

                    xk=(   0.80000,   0.00000,   0.00000  )

     Band symmetry, C_1 (1)     point group:

     e(  1 -  1) =    -68.62901  eV     1   --> A              
     e(  2 -  2) =    -34.87730  eV     1   --> A              
     e(  3 -  4) =    -34.85738  eV     2   -->   2 A              
     e(  5 -  5) =     14.17401  eV     1   --> A              
     e(  6 -  6) =     14.38991  eV     1   --> A              
     e(  7 -  8) =     18.14171  eV     2   -->   2 A              
     e(  9 -  9) =     18.59780  eV     1   --> A              
     e( 10 - 10) =     22.95451  eV     1   --> A              
     e( 11 - 12) =     27.62108  eV     2   -->   2 A              
     e( 13 - 13) =     32.56880  eV     1   --> A              
     e( 14 - 14) =     33.87011  eV     1   --> A              
     e( 15 - 15) =     39.50290  eV     1   --> A              

 **************************************************************************

 **************************************************************************

                    xk=(   0.85000,   0.00000,   0.00000  )

     Band symmetry, C_1 (1)     point group:

     e(  1 -  1) =    -68.62520  eV     1   --> A              
     e(  2 -  2) =    -34.88011  eV     1   --> A              
     e(  3 -  4) =    -34.86821  eV     2   -->   2 A              
     e(  5 -  5) =     14.12209  eV     1   --> A              
     e(  6 -  6) =     14.22545  eV     1   --> A              
     e(  7 -  8) =     18.40944  eV     2   -->   2 A              
     e(  9 -  9) =     18.70280  eV     1   --> A              
     e( 10 - 10) =     24.00492  eV     1   --> A              
     e( 11 - 12) =     26.98898  eV     2   -->   2 A              
     e( 13 - 13) =     32.49163  eV     1   --> A              
     e( 14 - 14) =     33.56262  eV     1   --> A              
     e( 15 - 15) =     38.15900  eV     1   --> A              

 **************************************************************************

 **************************************************************************

                    xk=(   0.90000,   0.00000,   0.00000  )

     Band symmetry, C_1 (1)     point group:

     e(  1 -  1) =    -68.62244  eV     1   --> A              
     e(  2 -  2) =    -34.88167  eV     1   --> A              
     e(  3 -  4) =    -34.87617  eV     2   -->   2 A              
     e(  5 -  5) =     14.06551  eV     1   --> A              
     e(  6 -  6) =     14.10586  eV     1   --> A              
     e(  7 -  8) =     18.63516  eV     2   -->   2 A              
     e(  9 -  9) =     18.77998  eV     1   --> A              
     e( 10 - 10) =     25.00011  eV     1   --> A              
     e( 11 - 12) =     26.50143  eV     2   -->   2 A              
     e( 13 - 13) =     32.43887  eV     1   --> A              
     e( 14 - 14) =     33.11195  eV     1   --> A              
     e( 15 - 15) =     37.20861  eV     1   --> A              

 **************************************************************************

 **************************************************************************

                    xk=(   0.95000,   0.00000,   0.00000  )

     Band symmetry, C_1 (1)     point group:

     e(  1 -  1) =    -68.62077  eV     1   --> A              
     e(  2 -  2) =    -34.88244  eV     1   --> A              
     e(  3 -  4) =    -34.88103  eV     2   -->   2 A              
     e(  5 -  5) =     14.02400  eV     1   --> A              
     e(  6 -  6) =     14.03328  eV     1   --> A              
     e(  7 -  8) =     18.78842  eV     2   -->   2 A              
     e(  9 -  9) =     18.82717  eV     1   --> A              
     e( 10 - 10) =     25.77505  eV     1   --> A              
     e( 11 - 12) =     26.19044  eV     2   -->   2 A              
     e( 13 - 13) =     32.40817  eV     1   --> A              
     e( 14 - 14) =     32.62419  eV     1   --> A              
     e( 15 - 15) =     36.68707  eV     1   --> A              

 **************************************************************************

 **************************************************************************

                    xk=(   1.00000,   0.00000,   0.00000  )

     Band symmetry, C_1 (1)     point group:

     e(  1 -  1) =    -68.62021  eV     1   --> A              
     e(  2 -  4) =    -34.88267  eV     3   -->   3 A              
     e(  5 -  6) =     14.00894  eV     2   -->   2 A              
     e(  7 -  9) =     18.84304  eV     3   -->   3 A              
     e( 10 - 12) =     26.08313  eV     3   -->   3 A              
     e( 13 - 14) =     32.39809  eV     2   -->   2 A              
     e( 15 - 15) =     36.52847  eV     1   --> A              

 **************************************************************************

 **************************************************************************

                    xk=(   0.97500,   0.02500,   0.00000  )

     Band symmetry, C_1 (1)     point group:

     e(  1 -  1) =    -68.62049  eV     1   --> A              
     e(  2 -  2) =    -34.88326  eV     1   --> A              
     e(  3 -  3) =    -34.88185  eV     1   --> A              
     e(  4 -  4) =    -34.88114  eV     1   --> A              
     e(  5 -  5) =     14.01775  eV     1   --> A              
     e(  6 -  6) =     14.01995  eV     1   --> A              
     e(  7 -  7) =     18.80595  eV     1   --> A              
     e(  8 -  8) =     18.81538  eV     1   --> A              
     e(  9 -  9) =     18.84470  eV     1   --> A              
     e( 10 - 10) =     26.01325  eV     1   --> A              
     e( 11 - 11) =     26.04636  eV     1   --> A              
     e( 12 - 12) =     26.13697  eV     1   --> A              
     e( 13 - 13) =     32.43187  eV     1   --> A              
     e( 14 - 14) =     32.49108  eV     1   --> A              
     e( 15 - 15) =     36.60555  eV     1   --> A              

 **************************************************************************

 **************************************************************************

                    xk=(   0.95000,   0.05000,   0.00000  )

     Band symmetry, C_1 (1)     point group:

     e(  1 -  1) =    -68.62132  eV     1   --> A              
     e(  2 -  2) =    -34.88503  eV     1   --> A              
     e(  3 -  3) =    -34.87941  eV     1   --> A              
     e(  4 -  4) =    -34.87659  eV     1   --> A              
     e(  5 -  5) =     14.04421  eV     1   --> A              
     e(  6 -  6) =     14.05231  eV     1   --> A              
     e(  7 -  7) =     18.69828  eV     1   --> A              
     e(  8 -  8) =     18.73377  eV     1   --> A              
     e(  9 -  9) =     18.84964  eV     1   --> A              
     e( 10 - 10) =     25.81434  eV     1   --> A              
     e( 11 - 11) =     25.94378  eV     1   --> A              
     e( 12 - 12) =     26.29496  eV     1   --> A              
     e( 13 - 13) =     32.52342  eV     1   --> A              
     e( 14 - 14) =     32.75947  eV     1   --> A              
     e( 15 - 15) =     36.83764  eV     1   --> A              

 **************************************************************************

 **************************************************************************

                    xk=(   0.92500,   0.07500,   0.00000  )

     Band symmetry, C_1 (1)     point group:

     e(  1 -  1) =    -68.62268  eV     1   --> A              
     e(  2 -  2) =    -34.88794  eV     1   --> A              
     e(  3 -  3) =    -34.87541  eV     1   --> A              
     e(  4 -  4) =    -34.86915  eV     1   --> A              
     e(  5 -  5) =     14.08837  eV     1   --> A              
     e(  6 -  6) =     14.10399  eV     1   --> A              
     e(  7 -  7) =     18.52971  eV     1   --> A              
     e(  8 -  8) =     18.60268  eV     1   --> A              
     e(  9 -  9) =     18.85773  eV     1   --> A              
     e( 10 - 10) =     25.51235  eV     1   --> A              
     e( 11 - 11) =     25.79473  eV     1   --> A              
     e( 12 - 12) =     26.54764  eV     1   --> A              
     e( 13 - 13) =     32.64940  eV     1   --> A              
     e( 14 - 14) =     33.17767  eV     1   --> A              
     e( 15 - 15) =     37.22494  eV     1   --> A              

 **************************************************************************

 **************************************************************************

                    xk=(   0.90000,   0.10000,   0.00000  )

     Band symmetry, C_1 (1)     point group:

     e(  1 -  1) =    -68.62454  eV     1   --> A              
     e(  2 -  2) =    -34.89192  eV     1   --> A              
     e(  3 -  3) =    -34.86997  eV     1   --> A              
     e(  4 -  4) =    -34.85897  eV     1   --> A              
     e(  5 -  5) =     14.15033  eV     1   --> A              
     e(  6 -  6) =     14.17135  eV     1   --> A              
     e(  7 -  7) =     18.31325  eV     1   --> A              
     e(  8 -  8) =     18.42983  eV     1   --> A              
     e(  9 -  9) =     18.86877  eV     1   --> A              
     e( 10 - 10) =     25.13635  eV     1   --> A              
     e( 11 - 11) =     25.62215  eV     1   --> A              
     e( 12 - 12) =     26.88238  eV     1   --> A              
     e( 13 - 13) =     32.78541  eV     1   --> A              
     e( 14 - 14) =     33.71723  eV     1   --> A              
     e( 15 - 15) =     37.76242  eV     1   --> A              

 **************************************************************************

 **************************************************************************

                    xk=(   0.87500,   0.12500,   0.00000  )

     Band symmetry, C_1 (1)     point group:

     e(  1 -  1) =    -68.62685  eV     1   --> A              
     e(  2 -  2) =    -34.89686  eV     1   --> A              
     e(  3 -  3) =    -34.86316  eV     1   --> A              
     e(  4 -  4) =    -34.84625  eV     1   --> A              
     e(  5 -  5) =     14.23023  eV     1   --> A              
     e(  6 -  6) =     14.24885  eV     1   --> A              
     e(  7 -  7) =     18.06260  eV     1   --> A              
     e(  8 -  8) =     18.22658  eV     1   --> A              
     e(  9 -  9) =     18.88254  eV     1   --> A              
     e( 10 - 10) =     24.71098  eV     1   --> A              
     e( 11 - 11) =     25.44594  eV     1   --> A              
     e( 12 - 12) =     27.28607  eV     1   --> A              
     e( 13 - 13) =     32.91507  eV     1   --> A              
     e( 14 - 14) =     34.35437  eV     1   --> A              
     e( 15 - 15) =     38.43722  eV     1   --> A              

 **************************************************************************

 **************************************************************************

                    xk=(   0.85000,   0.15000,   0.00000  )

     Band symmetry, C_1 (1)     point group:

     e(  1 -  1) =    -68.62955  eV     1   --> A              
     e(  2 -  2) =    -34.90264  eV     1   --> A              
     e(  3 -  3) =    -34.85519  eV     1   --> A              
     e(  4 -  4) =    -34.83135  eV     1   --> A              
     e(  5 -  5) =     14.32822  eV     1   --> A              
     e(  6 -  6) =     14.32843  eV     1   --> A              
     e(  7 -  7) =     17.79023  eV     1   --> A              
     e(  8 -  8) =     18.00796  eV     1   --> A              
     e(  9 -  9) =     18.89869  eV     1   --> A              
     e( 10 - 10) =     24.25442  eV     1   --> A              
     e( 11 - 11) =     25.28000  eV     1   --> A              
     e( 12 - 12) =     27.74680  eV     1   --> A              
     e( 13 - 13) =     33.03145  eV     1   --> A              
     e( 14 - 14) =     35.07192  eV     1   --> A              
     e( 15 - 15) =     39.22988  eV     1   --> A              

 **************************************************************************

 **************************************************************************

                    xk=(   0.82500,   0.17500,   0.00000  )

     Band symmetry, C_1 (1)     point group:

     e(  1 -  1) =    -68.63258  eV     1   --> A              
     e(  2 -  2) =    -34.90912  eV     1   --> A              
     e(  3 -  3) =    -34.84625  eV     1   --> A              
     e(  4 -  4) =    -34.81464  eV     1   --> A              
     e(  5 -  5) =     14.39916  eV     1   --> A              
     e(  6 -  6) =     14.44439  eV     1   --> A              
     e(  7 -  7) =     17.50680  eV     1   --> A              
     e(  8 -  8) =     17.79265  eV     1   --> A              
     e(  9 -  9) =     18.91684  eV     1   --> A              
     e( 10 - 10) =     23.77939  eV     1   --> A              
     e( 11 - 11) =     25.13232  eV     1   --> A              
     e( 12 - 12) =     28.25462  eV     1   --> A              
     e( 13 - 13) =     33.13416  eV     1   --> A              
     e( 14 - 14) =     35.85827  eV     1   --> A              
     e( 15 - 15) =     40.11736  eV     1   --> A              

 **************************************************************************

 **************************************************************************

                    xk=(   0.80000,   0.20000,   0.00000  )

     Band symmetry, C_1 (1)     point group:

     e(  1 -  1) =    -68.63587  eV     1   --> A              
     e(  2 -  2) =    -34.91616  eV     1   --> A              
     e(  3 -  3) =    -34.83655  eV     1   --> A              
     e(  4 -  4) =    -34.79649  eV     1   --> A              
     e(  5 -  5) =     14.44733  eV     1   --> A              
     e(  6 -  6) =     14.57887  eV     1   --> A              
     e(  7 -  7) =     17.22108  eV     1   --> A              
     e(  8 -  8) =     17.60194  eV     1   --> A              
     e(  9 -  9) =     18.93653  eV     1   --> A              
     e( 10 - 10) =     23.29472  eV     1   --> A              
     e( 11 - 11) =     25.00623  eV     1   --> A              
     e( 12 - 12) =     28.80157  eV     1   --> A              
     e( 13 - 13) =     33.22580  eV     1   --> A              
     e( 14 - 14) =     36.70581  eV     1   --> A              
     e( 15 - 15) =     41.07436  eV     1   --> A              

 **************************************************************************

 **************************************************************************

                    xk=(   0.77500,   0.22500,   0.00000  )

     Band symmetry, C_1 (1)     point group:

     e(  1 -  1) =    -68.63932  eV     1   --> A              
     e(  2 -  2) =    -34.92354  eV     1   --> A              
     e(  3 -  3) =    -34.82631  eV     1   --> A              
     e(  4 -  4) =    -34.77734  eV     1   --> A              
     e(  5 -  5) =     14.45835  eV     1   --> A              
     e(  6 -  6) =     14.73171  eV     1   --> A              
     e(  7 -  7) =     16.94008  eV     1   --> A              
     e(  8 -  8) =     17.45727  eV     1   --> A              
     e(  9 -  9) =     18.95732  eV     1   --> A              
     e( 10 - 10) =     22.80664  eV     1   --> A              
     e( 11 - 11) =     24.90199  eV     1   --> A              
     e( 12 - 12) =     29.38132  eV     1   --> A              
     e( 13 - 13) =     33.30975  eV     1   --> A              
     e( 14 - 14) =     37.60956  eV     1   --> A              
     e( 15 - 15) =     42.07136  eV     1   --> A              

 **************************************************************************

 **************************************************************************

                    xk=(   0.75000,   0.25000,   0.00000  )

     Band symmetry, C_1 (1)     point group:

     e(  1 -  1) =    -68.64287  eV     1   --> A              
     e(  2 -  2) =    -34.93110  eV     1   --> A              
     e(  3 -  3) =    -34.81583  eV     1   --> A              
     e(  4 -  4) =    -34.75767  eV     1   --> A              
     e(  5 -  5) =     14.42107  eV     1   --> A              
     e(  6 -  6) =     14.90283  eV     1   --> A              
     e(  7 -  7) =     16.66946  eV     1   --> A              
     e(  8 -  8) =     17.37504  eV     1   --> A              
     e(  9 -  9) =     18.97868  eV     1   --> A              
     e( 10 - 10) =     22.31971  eV     1   --> A              
     e( 11 - 11) =     24.81804  eV     1   --> A              
     e( 12 - 12) =     29.98887  eV     1   --> A              
     e( 13 - 13) =     33.38901  eV     1   --> A              
     e( 14 - 14) =     38.56612  eV     1   --> A              
     e( 15 - 15) =     43.06640  eV     1   --> A              

 **************************************************************************

 **************************************************************************

                    xk=(   0.72500,   0.27500,   0.00000  )

     Band symmetry, C_1 (1)     point group:

     e(  1 -  1) =    -68.64641  eV     1   --> A              
     e(  2 -  2) =    -34.93867  eV     1   --> A              
     e(  3 -  3) =    -34.80533  eV     1   --> A              
     e(  4 -  4) =    -34.73794  eV     1   --> A              
     e(  5 -  5) =     14.33347  eV     1   --> A              
     e(  6 -  6) =     15.09209  eV     1   --> A              
     e(  7 -  7) =     16.41385  eV     1   --> A              
     e(  8 -  8) =     17.36098  eV     1   --> A              
     e(  9 -  9) =     19.00009  eV     1   --> A              
     e( 10 - 10) =     21.83748  eV     1   --> A              
     e( 11 - 11) =     24.75200  eV     1   --> A              
     e( 12 - 12) =     30.62017  eV     1   --> A              
     e( 13 - 13) =     33.46598  eV     1   --> A              
     e( 14 - 14) =     39.57300  eV     1   --> A              
     e( 15 - 15) =     43.98365  eV     1   --> A              

 **************************************************************************

 **************************************************************************

                    xk=(   0.70000,   0.30000,   0.00000  )

     Band symmetry, C_1 (1)     point group:

     e(  1 -  1) =    -68.64986  eV     1   --> A              
     e(  2 -  2) =    -34.94602  eV     1   --> A              
     e(  3 -  3) =    -34.79506  eV     1   --> A              
     e(  4 -  4) =    -34.71865  eV     1   --> A              
     e(  5 -  5) =     14.20430  eV     1   --> A              
     e(  6 -  6) =     15.29908  eV     1   --> A              
     e(  7 -  7) =     16.17695  eV     1   --> A              
     e(  8 -  8) =     17.40818  eV     1   --> A              
     e(  9 -  9) =     19.02106  eV     1   --> A              
     e( 10 - 10) =     21.36291  eV     1   --> A              
     e( 11 - 11) =     24.70122  eV     1   --> A              
     e( 12 - 12) =     31.27165  eV     1   --> A              
     e( 13 - 13) =     33.54218  eV     1   --> A              
     e( 14 - 14) =     40.62803  eV     1   --> A              
     e( 15 - 15) =     44.66942  eV     1   --> A              

 **************************************************************************

 **************************************************************************

                    xk=(   0.67500,   0.32500,   0.00000  )

     Band symmetry, C_1 (1)     point group:

     e(  1 -  1) =    -68.65314  eV     1   --> A              
     e(  2 -  2) =    -34.95302  eV     1   --> A              
     e(  3 -  3) =    -34.78531  eV     1   --> A              
     e(  4 -  4) =    -34.70029  eV     1   --> A              
     e(  5 -  5) =     14.04920  eV     1   --> A              
     e(  6 -  6) =     15.52310  eV     1   --> A              
     e(  7 -  7) =     15.96175  eV     1   --> A              
     e(  8 -  8) =     17.50112  eV     1   --> A              
     e(  9 -  9) =     19.04099  eV     1   --> A              
     e( 10 - 10) =     20.89876  eV     1   --> A              
     e( 11 - 11) =     24.66305  eV     1   --> A              
     e( 12 - 12) =     31.93984  eV     1   --> A              
     e( 13 - 13) =     33.61826  eV     1   --> A              
     e( 14 - 14) =     41.72883  eV     1   --> A              
     e( 15 - 15) =     44.20833  eV     1   --> A              

 **************************************************************************

 **************************************************************************

                    xk=(   0.65000,   0.35000,   0.00000  )

     Band symmetry, C_1 (1)     point group:

     e(  1 -  1) =    -68.65616  eV     1   --> A              
     e(  2 -  2) =    -34.95946  eV     1   --> A              
     e(  3 -  3) =    -34.77627  eV     1   --> A              
     e(  4 -  4) =    -34.68330  eV     1   --> A              
     e(  5 -  5) =     13.88497  eV     1   --> A              
     e(  6 -  6) =     15.76295  eV     1   --> A              
     e(  7 -  7) =     15.77080  eV     1   --> A              
     e(  8 -  8) =     17.62163  eV     1   --> A              
     e(  9 -  9) =     19.05946  eV     1   --> A              
     e( 10 - 10) =     20.44787  eV     1   --> A              
     e( 11 - 11) =     24.63509  eV     1   --> A              
     e( 12 - 12) =     32.62077  eV     1   --> A              
     e( 13 - 13) =     33.69388  eV     1   --> A              
     e( 14 - 14) =     42.87217  eV     1   --> A              
     e( 15 - 15) =     43.28102  eV     1   --> A              

 **************************************************************************

 **************************************************************************

                    xk=(   0.62500,   0.37500,   0.00000  )

     Band symmetry, C_1 (1)     point group:

     e(  1 -  1) =    -68.65886  eV     1   --> A              
     e(  2 -  2) =    -34.96521  eV     1   --> A              
     e(  3 -  3) =    -34.76823  eV     1   --> A              
     e(  4 -  4) =    -34.66812  eV     1   --> A              
     e(  5 -  5) =     13.72607  eV     1   --> A              
     e(  6 -  6) =     15.60604  eV     1   --> A              
     e(  7 -  7) =     16.01649  eV     1   --> A              
     e(  8 -  8) =     17.75266  eV     1   --> A              
     e(  9 -  9) =     19.07594  eV     1   --> A              
     e( 10 - 10) =     20.01367  eV     1   --> A              
     e( 11 - 11) =     24.61520  eV     1   --> A              
     e( 12 - 12) =     33.30896  eV     1   --> A              
     e( 13 - 13) =     33.76759  eV     1   --> A              
     e( 14 - 14) =     42.38310  eV     1   --> A              
     e( 15 - 15) =     44.05279  eV     1   --> A              

 **************************************************************************

 **************************************************************************

                    xk=(   0.60000,   0.40000,   0.00000  )

     Band symmetry, C_1 (1)     point group:

     e(  1 -  1) =    -68.66117  eV     1   --> A              
     e(  2 -  2) =    -34.97012  eV     1   --> A              
     e(  3 -  3) =    -34.76136  eV     1   --> A              
     e(  4 -  4) =    -34.65512  eV     1   --> A              
     e(  5 -  5) =     13.58363  eV     1   --> A              
     e(  6 -  6) =     15.46916  eV     1   --> A              
     e(  7 -  7) =     16.27989  eV     1   --> A              
     e(  8 -  8) =     17.87969  eV     1   --> A              
     e(  9 -  9) =     19.09004  eV     1   --> A              
     e( 10 - 10) =     19.60107  eV     1   --> A              
     e( 11 - 11) =     24.60154  eV     1   --> A              
     e( 12 - 12) =     33.83674  eV     1   --> A              
     e( 13 - 13) =     33.99544  eV     1   --> A              
     e( 14 - 14) =     41.52432  eV     1   --> A              
     e( 15 - 15) =     43.79588  eV     1   --> A              

 **************************************************************************

 **************************************************************************

                    xk=(   0.57500,   0.42500,   0.00000  )

     Band symmetry, C_1 (1)     point group:

     e(  1 -  1) =    -68.66302  eV     1   --> A              
     e(  2 -  2) =    -34.97407  eV     1   --> A              
     e(  3 -  3) =    -34.75582  eV     1   --> A              
     e(  4 -  4) =    -34.64464  eV     1   --> A              
     e(  5 -  5) =     13.46571  eV     1   --> A              
     e(  6 -  6) =     15.36141  eV     1   --> A              
     e(  7 -  7) =     16.54562  eV     1   --> A              
     e(  8 -  8) =     17.99088  eV     1   --> A              
     e(  9 -  9) =     19.10140  eV     1   --> A              
     e( 10 - 10) =     19.21845  eV     1   --> A              
     e( 11 - 11) =     24.59258  eV     1   --> A              
     e( 12 - 12) =     33.89762  eV     1   --> A              
     e( 13 - 13) =     34.66321  eV     1   --> A              
     e( 14 - 14) =     40.72216  eV     1   --> A              
     e( 15 - 15) =     43.37992  eV     1   --> A              

 **************************************************************************

 **************************************************************************

                    xk=(   0.55000,   0.45000,   0.00000  )

     Band symmetry, C_1 (1)     point group:

     e(  1 -  1) =    -68.66438  eV     1   --> A              
     e(  2 -  2) =    -34.97696  eV     1   --> A              
     e(  3 -  3) =    -34.75176  eV     1   --> A              
     e(  4 -  4) =    -34.63694  eV     1   --> A              
     e(  5 -  5) =     13.37791  eV     1   --> A              
     e(  6 -  6) =     15.28377  eV     1   --> A              
     e(  7 -  7) =     16.79753  eV     1   --> A              
     e(  8 -  8) =     18.07702  eV     1   --> A              
     e(  9 -  9) =     18.88259  eV     1   --> A              
     e( 10 - 10) =     19.10972  eV     1   --> A              
     e( 11 - 11) =     24.58710  eV     1   --> A              
     e( 12 - 12) =     33.94580  eV     1   --> A              
     e( 13 - 13) =     35.27617  eV     1   --> A              
     e( 14 - 14) =     40.01304  eV     1   --> A              
     e( 15 - 15) =     43.05947  eV     1   --> A              

 **************************************************************************

 **************************************************************************

                    xk=(   0.52500,   0.47500,   0.00000  )

     Band symmetry, C_1 (1)     point group:

     e(  1 -  1) =    -68.66520  eV     1   --> A              
     e(  2 -  2) =    -34.97872  eV     1   --> A              
     e(  3 -  3) =    -34.74929  eV     1   --> A              
     e(  4 -  4) =    -34.63225  eV     1   --> A              
     e(  5 -  5) =     13.32387  eV     1   --> A              
     e(  6 -  6) =     15.23691  eV     1   --> A              
     e(  7 -  7) =     16.99910  eV     1   --> A              
     e(  8 -  8) =     18.13140  eV     1   --> A              
     e(  9 -  9) =     18.63048  eV     1   --> A              
     e( 10 - 10) =     19.11481  eV     1   --> A              
     e( 11 - 11) =     24.58416  eV     1   --> A              
     e( 12 - 12) =     33.97690  eV     1   --> A              
     e( 13 - 13) =     35.75342  eV     1   --> A              
     e( 14 - 14) =     39.47802  eV     1   --> A              
     e( 15 - 15) =     42.85860  eV     1   --> A              

 **************************************************************************

 **************************************************************************

                    xk=(   0.50000,   0.50000,   0.00000  )

     Band symmetry, C_1 (1)     point group:

     e(  1 -  1) =    -68.66548  eV     1   --> A              
     e(  2 -  2) =    -34.97932  eV     1   --> A              
     e(  3 -  3) =    -34.74846  eV     1   --> A              
     e(  4 -  4) =    -34.63067  eV     1   --> A              
     e(  5 -  5) =     13.30563  eV     1   --> A              
     e(  6 -  6) =     15.22124  eV     1   --> A              
     e(  7 -  7) =     17.08213  eV     1   --> A              
     e(  8 -  8) =     18.14998  eV     1   --> A              
     e(  9 -  9) =     18.53056  eV     1   --> A              
     e( 10 - 10) =     19.11651  eV     1   --> A              
     e( 11 - 11) =     24.58325  eV     1   --> A              
     e( 12 - 12) =     33.98767  eV     1   --> A              
     e( 13 - 13) =     35.94646  eV     1   --> A              
     e( 14 - 14) =     39.26571  eV     1   --> A              
     e( 15 - 15) =     42.79024  eV     1   --> A              

 **************************************************************************

 **************************************************************************

                    xk=(   0.47500,   0.47500,   0.00000  )

     Band symmetry, C_1 (1)     point group:

     e(  1 -  1) =    -68.66586  eV     1   --> A              
     e(  2 -  2) =    -34.97721  eV     1   --> A              
     e(  3 -  3) =    -34.74775  eV     1   --> A              
     e(  4 -  4) =    -34.63067  eV     1   --> A              
     e(  5 -  5) =     13.28696  eV     1   --> A              
     e(  6 -  6) =     15.22786  eV     1   --> A              
     e(  7 -  7) =     17.02005  eV     1   --> A              
     e(  8 -  8) =     18.14916  eV     1   --> A              
     e(  9 -  9) =     18.52818  eV     1   --> A              
     e( 10 - 10) =     19.09539  eV     1   --> A              
     e( 11 - 11) =     24.70503  eV     1   --> A              
     e( 12 - 12) =     34.01837  eV     1   --> A              
     e( 13 - 13) =     35.99179  eV     1   --> A              
     e( 14 - 14) =     39.26831  eV     1   --> A              
     e( 15 - 15) =     42.78512  eV     1   --> A              

 **************************************************************************

 **************************************************************************

                    xk=(   0.45000,   0.45000,   0.00000  )

     Band symmetry, C_1 (1)     point group:

     e(  1 -  1) =    -68.66698  eV     1   --> A              
     e(  2 -  2) =    -34.97096  eV     1   --> A              
     e(  3 -  3) =    -34.74561  eV     1   --> A              
     e(  4 -  4) =    -34.63068  eV     1   --> A              
     e(  5 -  5) =     13.22779  eV     1   --> A              
     e(  6 -  6) =     15.24758  eV     1   --> A              
     e(  7 -  7) =     16.85427  eV     1   --> A              
     e(  8 -  8) =     18.14453  eV     1   --> A              
     e(  9 -  9) =     18.52114  eV     1   --> A              
     e( 10 - 10) =     19.03301  eV     1   --> A              
     e( 11 - 11) =     25.05509  eV     1   --> A              
     e( 12 - 12) =     34.11011  eV     1   --> A              
     e( 13 - 13) =     36.12676  eV     1   --> A              
     e( 14 - 14) =     39.27612  eV     1   --> A              
     e( 15 - 15) =     42.77083  eV     1   --> A              

 **************************************************************************

 **************************************************************************

                    xk=(   0.42500,   0.42500,   0.00000  )

     Band symmetry, C_1 (1)     point group:

     e(  1 -  1) =    -68.66882  eV     1   --> A              
     e(  2 -  2) =    -34.96068  eV     1   --> A              
     e(  3 -  3) =    -34.74211  eV     1   --> A              
     e(  4 -  4) =    -34.63069  eV     1   --> A              
     e(  5 -  5) =     13.11937  eV     1   --> A              
     e(  6 -  6) =     15.28003  eV     1   --> A              
     e(  7 -  7) =     16.63299  eV     1   --> A              
     e(  8 -  8) =     18.13308  eV     1   --> A              
     e(  9 -  9) =     18.50986  eV     1   --> A              
     e( 10 - 10) =     18.93225  eV     1   --> A              
     e( 11 - 11) =     25.59645  eV     1   --> A              
     e( 12 - 12) =     34.26183  eV     1   --> A              
     e( 13 - 13) =     36.34841  eV     1   --> A              
     e( 14 - 14) =     39.28921  eV     1   --> A              
     e( 15 - 15) =     42.75050  eV     1   --> A              

 **************************************************************************

 **************************************************************************

                    xk=(   0.40000,   0.40000,   0.00000  )

     Band symmetry, C_1 (1)     point group:

     e(  1 -  1) =    -68.67132  eV     1   --> A              
     e(  2 -  2) =    -34.94663  eV     1   --> A              
     e(  3 -  3) =    -34.73730  eV     1   --> A              
     e(  4 -  4) =    -34.63069  eV     1   --> A              
     e(  5 -  5) =     12.95066  eV     1   --> A              
     e(  6 -  6) =     15.32461  eV     1   --> A              
     e(  7 -  7) =     16.40880  eV     1   --> A              
     e(  8 -  8) =     18.11435  eV     1   --> A              
     e(  9 -  9) =     18.49503  eV     1   --> A              
     e( 10 - 10) =     18.79756  eV     1   --> A              
     e( 11 - 11) =     26.28715  eV     1   --> A              
     e( 12 - 12) =     34.47181  eV     1   --> A              
     e( 13 - 13) =     36.65215  eV     1   --> A              
     e( 14 - 14) =     39.30766  eV     1   --> A              
     e( 15 - 15) =     42.72884  eV     1   --> A              

 **************************************************************************

 **************************************************************************

                    xk=(   0.37500,   0.37500,   0.00000  )

     Band symmetry, C_1 (1)     point group:

     e(  1 -  1) =    -68.67445  eV     1   --> A              
     e(  2 -  2) =    -34.92917  eV     1   --> A              
     e(  3 -  3) =    -34.73138  eV     1   --> A              
     e(  4 -  4) =    -34.63074  eV     1   --> A              
     e(  5 -  5) =     12.71418  eV     1   --> A              
     e(  6 -  6) =     15.38038  eV     1   --> A              
     e(  7 -  7) =     16.22246  eV     1   --> A              
     e(  8 -  8) =     18.08981  eV     1   --> A              
     e(  9 -  9) =     18.47733  eV     1   --> A              
     e( 10 - 10) =     18.63440  eV     1   --> A              
     e( 11 - 11) =     27.09084  eV     1   --> A              
     e( 12 - 12) =     34.73762  eV     1   --> A              
     e( 13 - 13) =     37.03220  eV     1   --> A              
     e( 14 - 14) =     39.33155  eV     1   --> A              
     e( 15 - 15) =     42.71167  eV     1   --> A              

 **************************************************************************

 **************************************************************************

                    xk=(   0.35000,   0.35000,   0.00000  )

     Band symmetry, C_1 (1)     point group:

     e(  1 -  1) =    -68.67810  eV     1   --> A              
     e(  2 -  2) =    -34.90866  eV     1   --> A              
     e(  3 -  3) =    -34.72442  eV     1   --> A              
     e(  4 -  4) =    -34.63078  eV     1   --> A              
     e(  5 -  5) =     12.41212  eV     1   --> A              
     e(  6 -  6) =     15.44627  eV     1   --> A              
     e(  7 -  7) =     16.09537  eV     1   --> A              
     e(  8 -  8) =     18.06196  eV     1   --> A              
     e(  9 -  9) =     18.44903  eV     1   --> A              
     e( 10 - 10) =     18.45775  eV     1   --> A              
     e( 11 - 11) =     27.97954  eV     1   --> A              
     e( 12 - 12) =     35.05618  eV     1   --> A              
     e( 13 - 13) =     37.48209  eV     1   --> A              
     e( 14 - 14) =     39.36101  eV     1   --> A              
     e( 15 - 15) =     42.70553  eV     1   --> A              

 **************************************************************************

 **************************************************************************

                    xk=(   0.32500,   0.32500,   0.00000  )

     Band symmetry, C_1 (1)     point group:

     e(  1 -  1) =    -68.68219  eV     1   --> A              
     e(  2 -  2) =    -34.88560  eV     1   --> A              
     e(  3 -  3) =    -34.71660  eV     1   --> A              
     e(  4 -  4) =    -34.63081  eV     1   --> A              
     e(  5 -  5) =     12.05724  eV     1   --> A              
     e(  6 -  6) =     15.52093  eV     1   --> A              
     e(  7 -  7) =     16.03001  eV     1   --> A              
     e(  8 -  8) =     18.03371  eV     1   --> A              
     e(  9 -  9) =     18.24786  eV     1   --> A              
     e( 10 - 10) =     18.43723  eV     1   --> A              
     e( 11 - 11) =     28.93221  eV     1   --> A              
     e( 12 - 12) =     35.42368  eV     1   --> A              
     e( 13 - 13) =     37.99508  eV     1   --> A              
     e( 14 - 14) =     39.39615  eV     1   --> A              
     e( 15 - 15) =     42.71723  eV     1   --> A              

 **************************************************************************

 **************************************************************************

                    xk=(   0.30000,   0.30000,   0.00000  )

     Band symmetry, C_1 (1)     point group:

     e(  1 -  1) =    -68.68662  eV     1   --> A              
     e(  2 -  2) =    -34.86055  eV     1   --> A              
     e(  3 -  3) =    -34.70812  eV     1   --> A              
     e(  4 -  4) =    -34.63083  eV     1   --> A              
     e(  5 -  5) =     11.66836  eV     1   --> A              
     e(  6 -  6) =     15.60277  eV     1   --> A              
     e(  7 -  7) =     16.01673  eV     1   --> A              
     e(  8 -  8) =     18.00823  eV     1   --> A              
     e(  9 -  9) =     18.03716  eV     1   --> A              
     e( 10 - 10) =     18.41663  eV     1   --> A              
     e( 11 - 11) =     29.93270  eV     1   --> A              
     e( 12 - 12) =     35.83547  eV     1   --> A              
     e( 13 - 13) =     38.56446  eV     1   --> A              
     e( 14 - 14) =     39.43702  eV     1   --> A              
     e( 15 - 15) =     42.75369  eV     1   --> A              

 **************************************************************************

 **************************************************************************

                    xk=(   0.27500,   0.27500,   0.00000  )

     Band symmetry, C_1 (1)     point group:

     e(  1 -  1) =    -68.69129  eV     1   --> A              
     e(  2 -  2) =    -34.83411  eV     1   --> A              
     e(  3 -  3) =    -34.69919  eV     1   --> A              
     e(  4 -  4) =    -34.63089  eV     1   --> A              
     e(  5 -  5) =     11.26459  eV     1   --> A              
     e(  6 -  6) =     15.68999  eV     1   --> A              
     e(  7 -  7) =     16.04130  eV     1   --> A              
     e(  8 -  8) =     17.82285  eV     1   --> A              
     e(  9 -  9) =     17.98886  eV     1   --> A              
     e( 10 - 10) =     18.39672  eV     1   --> A              
     e( 11 - 11) =     30.96775  eV     1   --> A              
     e( 12 - 12) =     36.28584  eV     1   --> A              
     e( 13 - 13) =     39.18380  eV     1   --> A              
     e( 14 - 14) =     39.48356  eV     1   --> A              
     e( 15 - 15) =     42.82196  eV     1   --> A              

 **************************************************************************

 **************************************************************************

                    xk=(   0.25000,   0.25000,   0.00000  )

     Band symmetry, C_1 (1)     point group:

     e(  1 -  1) =    -68.69607  eV     1   --> A              
     e(  2 -  2) =    -34.80694  eV     1   --> A              
     e(  3 -  3) =    -34.69002  eV     1   --> A              
     e(  4 -  4) =    -34.63093  eV     1   --> A              
     e(  5 -  5) =     10.86213  eV     1   --> A              
     e(  6 -  6) =     15.78059  eV     1   --> A              
     e(  7 -  7) =     16.08935  eV     1   --> A              
     e(  8 -  8) =     17.61038  eV     1   --> A              
     e(  9 -  9) =     17.97902  eV     1   --> A              
     e( 10 - 10) =     18.37815  eV     1   --> A              
     e( 11 - 11) =     32.02555  eV     1   --> A              
     e( 12 - 12) =     36.76763  eV     1   --> A              
     e( 13 - 13) =     39.53561  eV     1   --> A              
     e( 14 - 14) =     39.84711  eV     1   --> A              
     e( 15 - 15) =     42.92927  eV     1   --> A              

 **************************************************************************

 **************************************************************************

                    xk=(   0.22500,   0.22500,   0.00000  )

     Band symmetry, C_1 (1)     point group:

     e(  1 -  1) =    -68.70084  eV     1   --> A              
     e(  2 -  2) =    -34.77965  eV     1   --> A              
     e(  3 -  3) =    -34.68085  eV     1   --> A              
     e(  4 -  4) =    -34.63097  eV     1   --> A              
     e(  5 -  5) =     10.47367  eV     1   --> A              
     e(  6 -  6) =     15.87242  eV     1   --> A              
     e(  7 -  7) =     16.14845  eV     1   --> A              
     e(  8 -  8) =     17.40465  eV     1   --> A              
     e(  9 -  9) =     17.98154  eV     1   --> A              
     e( 10 - 10) =     18.36144  eV     1   --> A              
     e( 11 - 11) =     33.09452  eV     1   --> A              
     e( 12 - 12) =     37.27157  eV     1   --> A              
     e( 13 - 13) =     39.59273  eV     1   --> A              
     e( 14 - 14) =     40.54890  eV     1   --> A              
     e( 15 - 15) =     43.08317  eV     1   --> A              

 **************************************************************************

 **************************************************************************

                    xk=(   0.20000,   0.20000,   0.00000  )

     Band symmetry, C_1 (1)     point group:

     e(  1 -  1) =    -68.70549  eV     1   --> A              
     e(  2 -  2) =    -34.75298  eV     1   --> A              
     e(  3 -  3) =    -34.67187  eV     1   --> A              
     e(  4 -  4) =    -34.63100  eV     1   --> A              
     e(  5 -  5) =     10.10872  eV     1   --> A              
     e(  6 -  6) =     15.96324  eV     1   --> A              
     e(  7 -  7) =     16.20855  eV     1   --> A              
     e(  8 -  8) =     17.20995  eV     1   --> A              
     e(  9 -  9) =     17.99832  eV     1   --> A              
     e( 10 - 10) =     18.34685  eV     1   --> A              
     e( 11 - 11) =     34.16225  eV     1   --> A              
     e( 12 - 12) =     37.78532  eV     1   --> A              
     e( 13 - 13) =     39.65421  eV     1   --> A              
     e( 14 - 14) =     41.28418  eV     1   --> A              
     e( 15 - 15) =     43.29162  eV     1   --> A              

 **************************************************************************

 **************************************************************************

                    xk=(   0.17500,   0.17500,   0.00000  )

     Band symmetry, C_1 (1)     point group:

     e(  1 -  1) =    -68.70991  eV     1   --> A              
     e(  2 -  2) =    -34.72756  eV     1   --> A              
     e(  3 -  3) =    -34.66335  eV     1   --> A              
     e(  4 -  4) =    -34.63103  eV     1   --> A              
     e(  5 -  5) =      9.77444  eV     1   --> A              
     e(  6 -  6) =     16.05070  eV     1   --> A              
     e(  7 -  7) =     16.26267  eV     1   --> A              
     e(  8 -  8) =     17.02998  eV     1   --> A              
     e(  9 -  9) =     18.02939  eV     1   --> A              
     e( 10 - 10) =     18.33454  eV     1   --> A              
     e( 11 - 11) =     35.21454  eV     1   --> A              
     e( 12 - 12) =     38.29221  eV     1   --> A              
     e( 13 - 13) =     39.71886  eV     1   --> A              
     e( 14 - 14) =     42.04847  eV     1   --> A              
     e( 15 - 15) =     43.56306  eV     1   --> A              

 **************************************************************************

 **************************************************************************

                    xk=(   0.15000,   0.15000,   0.00000  )

     Band symmetry, C_1 (1)     point group:

     e(  1 -  1) =    -68.71399  eV     1   --> A              
     e(  2 -  2) =    -34.70403  eV     1   --> A              
     e(  3 -  3) =    -34.65549  eV     1   --> A              
     e(  4 -  4) =    -34.63106  eV     1   --> A              
     e(  5 -  5) =      9.47622  eV     1   --> A              
     e(  6 -  6) =     16.13245  eV     1   --> A              
     e(  7 -  7) =     16.30682  eV     1   --> A              
     e(  8 -  8) =     16.86797  eV     1   --> A              
     e(  9 -  9) =     18.07263  eV     1   --> A              
     e( 10 - 10) =     18.32449  eV     1   --> A              
     e( 11 - 11) =     36.23438  eV     1   --> A              
     e( 12 - 12) =     38.77019  eV     1   --> A              
     e( 13 - 13) =     39.78493  eV     1   --> A              
     e( 14 - 14) =     42.83778  eV     1   --> A              
     e( 15 - 15) =     43.90600  eV     1   --> A              

 **************************************************************************

 **************************************************************************

                    xk=(   0.12500,   0.12500,   0.00000  )

     Band symmetry, C_1 (1)     point group:

     e(  1 -  1) =    -68.71762  eV     1   --> A              
     e(  2 -  2) =    -34.68300  eV     1   --> A              
     e(  3 -  3) =    -34.64846  eV     1   --> A              
     e(  4 -  4) =    -34.63110  eV     1   --> A              
     e(  5 -  5) =      9.21812  eV     1   --> A              
     e(  6 -  6) =     16.20622  eV     1   --> A              
     e(  7 -  7) =     16.33982  eV     1   --> A              
     e(  8 -  8) =     16.72658  eV     1   --> A              
     e(  9 -  9) =     18.12381  eV     1   --> A              
     e( 10 - 10) =     18.31655  eV     1   --> A              
     e( 11 - 11) =     37.20088  eV     1   --> A              
     e( 12 - 12) =     39.19270  eV     1   --> A              
     e( 13 - 13) =     39.85002  eV     1   --> A              
     e( 14 - 14) =     43.64850  eV     1   --> A              
     e( 15 - 15) =     44.31501  eV     1   --> A              

 **************************************************************************

 **************************************************************************

                    xk=(   0.10000,   0.10000,   0.00000  )

     Band symmetry, C_1 (1)     point group:

     e(  1 -  1) =    -68.72073  eV     1   --> A              
     e(  2 -  2) =    -34.66501  eV     1   --> A              
     e(  3 -  3) =    -34.64245  eV     1   --> A              
     e(  4 -  4) =    -34.63113  eV     1   --> A              
     e(  5 -  5) =      9.00324  eV     1   --> A              
     e(  6 -  6) =     16.26989  eV     1   --> A              
     e(  7 -  7) =     16.36257  eV     1   --> A              
     e(  8 -  8) =     16.60801  eV     1   --> A              
     e(  9 -  9) =     18.17719  eV     1   --> A              
     e( 10 - 10) =     18.31052  eV     1   --> A              
     e( 11 - 11) =     38.08814  eV     1   --> A              
     e( 12 - 12) =     39.53416  eV     1   --> A              
     e( 13 - 13) =     39.91108  eV     1   --> A              
     e( 14 - 14) =     44.37538  eV     1   --> A              
     e( 15 - 15) =     44.47736  eV     1   --> A              

 **************************************************************************

 **************************************************************************

                    xk=(   0.07500,   0.07500,   0.00000  )

     Band symmetry, C_1 (1)     point group:

     e(  1 -  1) =    -68.72322  eV     1   --> A              
     e(  2 -  2) =    -34.65049  eV     1   --> A              
     e(  3 -  3) =    -34.63762  eV     1   --> A              
     e(  4 -  4) =    -34.63115  eV     1   --> A              
     e(  5 -  5) =      8.83391  eV     1   --> A              
     e(  6 -  6) =     16.32158  eV     1   --> A              
     e(  7 -  7) =     16.37704  eV     1   --> A              
     e(  8 -  8) =     16.51401  eV     1   --> A              
     e(  9 -  9) =     18.22664  eV     1   --> A              
     e( 10 - 10) =     18.30622  eV     1   --> A              
     e( 11 - 11) =     38.86346  eV     1   --> A              
     e( 12 - 12) =     39.78041  eV     1   --> A              
     e( 13 - 13) =     39.96445  eV     1   --> A              
     e( 14 - 14) =     44.58423  eV     1   --> A              
     e( 15 - 15) =     45.32105  eV     1   --> A              

 **************************************************************************

 **************************************************************************

                    xk=(   0.05000,   0.05000,   0.00000  )

     Band symmetry, C_1 (1)     point group:

     e(  1 -  1) =    -68.72505  eV     1   --> A              
     e(  2 -  2) =    -34.63986  eV     1   --> A              
     e(  3 -  3) =    -34.63407  eV     1   --> A              
     e(  4 -  4) =    -34.63117  eV     1   --> A              
     e(  5 -  5) =      8.71181  eV     1   --> A              
     e(  6 -  6) =     16.35969  eV     1   --> A              
     e(  7 -  7) =     16.38543  eV     1   --> A              
     e(  8 -  8) =     16.44594  eV     1   --> A              
     e(  9 -  9) =     18.26648  eV     1   --> A              
     e( 10 - 10) =     18.30334  eV     1   --> A              
     e( 11 - 11) =     39.48433  eV     1   --> A              
     e( 12 - 12) =     39.93572  eV     1   --> A              
     e( 13 - 13) =     40.00630  eV     1   --> A              
     e( 14 - 14) =     44.89937  eV     1   --> A              
     e( 15 - 15) =     45.62931  eV     1   --> A              

 **************************************************************************

 **************************************************************************

                    xk=(   0.02500,   0.02500,   0.00000  )

     Band symmetry, C_1 (1)     point group:

     e(  1 -  1) =    -68.72616  eV     1   --> A              
     e(  2 -  2) =    -34.63337  eV     1   --> A              
     e(  3 -  3) =    -34.63191  eV     1   --> A              
     e(  4 -  4) =    -34.63118  eV     1   --> A              
     e(  5 -  5) =      8.63810  eV     1   --> A              
     e(  6 -  6) =     16.38306  eV     1   --> A              
     e(  7 -  7) =     16.38966  eV     1   --> A              
     e(  8 -  8) =     16.40473  eV     1   --> A              
     e(  9 -  9) =     18.29227  eV     1   --> A              
     e( 10 - 10) =     18.30170  eV     1   --> A              
     e( 11 - 11) =     39.89620  eV     1   --> A              
     e( 12 - 12) =     40.01736  eV     1   --> A              
     e( 13 - 13) =     40.03310  eV     1   --> A              
     e( 14 - 14) =     45.21939  eV     1   --> A              
     e( 15 - 15) =     45.45616  eV     1   --> A              

 **************************************************************************

 **************************************************************************

                    xk=(   0.00000,   0.00000,   0.00000  )

     Band symmetry, C_1 (1)     point group:

     e(  1 -  1) =    -68.72654  eV     1   --> A              
     e(  2 -  4) =    -34.63118  eV     3   -->   3 A              
     e(  5 -  5) =      8.61346  eV     1   --> A              
     e(  6 -  8) =     16.39093  eV     3   -->   3 A              
     e(  9 - 10) =     18.30117  eV     2   -->   2 A              
     e( 11 - 13) =     40.04234  eV     3   -->   3 A              
     e( 14 - 15) =     45.36669  eV     2   -->   2 A              

 **************************************************************************

 **************************************************************************

                    xk=(   0.02500,   0.02500,   0.02500  )

     Band symmetry, C_1 (1)     point group:

     e(  1 -  1) =    -68.72598  eV     1   --> A              
     e(  2 -  2) =    -34.63481  eV     1   --> A              
     e(  3 -  4) =    -34.63154  eV     2   -->   2 A              
     e(  5 -  5) =      8.65041  eV     1   --> A              
     e(  6 -  7) =     16.38237  eV     2   -->   2 A              
     e(  8 -  8) =     16.41495  eV     1   --> A              
     e(  9 - 10) =     18.29495  eV     2   -->   2 A              
     e( 11 - 12) =     39.89014  eV     2   -->   2 A              
     e( 13 - 13) =     40.07547  eV     1   --> A              
     e( 14 - 15) =     45.32573  eV     2   -->   2 A              

 **************************************************************************

 **************************************************************************

                    xk=(   0.05000,   0.05000,   0.05000  )

     Band symmetry, C_1 (1)     point group:

     e(  1 -  1) =    -68.72432  eV     1   --> A              
     e(  2 -  2) =    -34.64552  eV     1   --> A              
     e(  3 -  4) =    -34.63264  eV     2   -->   2 A              
     e(  5 -  5) =      8.76075  eV     1   --> A              
     e(  6 -  7) =     16.35621  eV     2   -->   2 A              
     e(  8 -  8) =     16.48672  eV     1   --> A              
     e(  9 - 10) =     18.27776  eV     2   -->   2 A              
     e( 11 - 12) =     39.44971  eV     2   -->   2 A              
     e( 13 - 13) =     40.17487  eV     1   --> A              
     e( 14 - 14) =     45.28411  eV     1   --> A              
     e( 15 - 15) =     45.28844  eV     1   --> A              

 **************************************************************************

 **************************************************************************

                    xk=(   0.07500,   0.07500,   0.07500  )

     Band symmetry, C_1 (1)     point group:

     e(  1 -  1) =    -68.72162  eV     1   --> A              
     e(  2 -  2) =    -34.66270  eV     1   --> A              
     e(  3 -  4) =    -34.63449  eV     2   -->   2 A              
     e(  5 -  5) =      8.94296  eV     1   --> A              
     e(  6 -  7) =     16.31120  eV     2   -->   2 A              
     e(  8 -  8) =     16.60531  eV     1   --> A              
     e(  9 - 10) =     18.25370  eV     2   -->   2 A              
     e( 11 - 12) =     38.77384  eV     2   -->   2 A              
     e( 13 - 13) =     40.34054  eV     1   --> A              
     e( 14 - 14) =     43.88001  eV     1   --> A              
     e( 15 - 15) =     45.38182  eV     1   --> A              

 **************************************************************************

 **************************************************************************

                    xk=(   0.10000,   0.10000,   0.10000  )

     Band symmetry, C_1 (1)     point group:

     e(  1 -  1) =    -68.71800  eV     1   --> A              
     e(  2 -  2) =    -34.68541  eV     1   --> A              
     e(  3 -  4) =    -34.63713  eV     2   -->   2 A              
     e(  5 -  5) =      9.19449  eV     1   --> A              
     e(  6 -  7) =     16.24601  eV     2   -->   2 A              
     e(  8 -  8) =     16.76920  eV     1   --> A              
     e(  9 - 10) =     18.22850  eV     2   -->   2 A              
     e( 11 - 12) =     37.93887  eV     2   -->   2 A              
     e( 13 - 13) =     40.57246  eV     1   --> A              
     e( 14 - 14) =     42.45064  eV     1   --> A              
     e( 15 - 15) =     45.64838  eV     1   --> A              

 **************************************************************************

 **************************************************************************

                    xk=(   0.12500,   0.12500,   0.12500  )

     Band symmetry, C_1 (1)     point group:

     e(  1 -  1) =    -68.71360  eV     1   --> A              
     e(  2 -  2) =    -34.71247  eV     1   --> A              
     e(  3 -  4) =    -34.64065  eV     2   -->   2 A              
     e(  5 -  5) =      9.51172  eV     1   --> A              
     e(  6 -  7) =     16.16014  eV     2   -->   2 A              
     e(  8 -  8) =     16.97637  eV     1   --> A              
     e(  9 - 10) =     18.20793  eV     2   -->   2 A              
     e( 11 - 12) =     37.01489  eV     2   -->   2 A              
     e( 13 - 13) =     40.87063  eV     1   --> A              
     e( 14 - 14) =     41.01597  eV     1   --> A              
     e( 15 - 15) =     46.06869  eV     1   --> A              

 **************************************************************************

 **************************************************************************

                    xk=(   0.15000,   0.15000,   0.15000  )

     Band symmetry, C_1 (1)     point group:

     e(  1 -  1) =    -68.70859  eV     1   --> A              
     e(  2 -  2) =    -34.74242  eV     1   --> A              
     e(  3 -  4) =    -34.64508  eV     2   -->   2 A              
     e(  5 -  5) =      9.88994  eV     1   --> A              
     e(  6 -  7) =     16.05487  eV     2   -->   2 A              
     e(  8 -  8) =     17.22429  eV     1   --> A              
     e(  9 - 10) =     18.19663  eV     2   -->   2 A              
     e( 11 - 12) =     36.05173  eV     2   -->   2 A              
     e( 13 - 13) =     39.59198  eV     1   --> A              
     e( 14 - 14) =     41.23503  eV     1   --> A              
     e( 15 - 15) =     46.59210  eV     1   --> A              

 **************************************************************************

 **************************************************************************

                    xk=(   0.17500,   0.17500,   0.17500  )

     Band symmetry, C_1 (1)     point group:

     e(  1 -  1) =    -68.70314  eV     1   --> A              
     e(  2 -  2) =    -34.77363  eV     1   --> A              
     e(  3 -  4) =    -34.65046  eV     2   -->   2 A              
     e(  5 -  5) =     10.32321  eV     1   --> A              
     e(  6 -  7) =     15.93354  eV     2   -->   2 A              
     e(  8 -  8) =     17.51033  eV     1   --> A              
     e(  9 - 10) =     18.19720  eV     2   -->   2 A              
     e( 11 - 12) =     35.08096  eV     2   -->   2 A              
     e( 13 - 13) =     38.19232  eV     1   --> A              
     e( 14 - 14) =     41.66564  eV     1   --> A              
     e( 15 - 15) =     47.11015  eV     1   --> A              

 **************************************************************************

 **************************************************************************

                    xk=(   0.20000,   0.20000,   0.20000  )

     Band symmetry, C_1 (1)     point group:

     e(  1 -  1) =    -68.69749  eV     1   --> A              
     e(  2 -  2) =    -34.80451  eV     1   --> A              
     e(  3 -  4) =    -34.65688  eV     2   -->   2 A              
     e(  5 -  5) =     10.80409  eV     1   --> A              
     e(  6 -  7) =     15.80120  eV     2   -->   2 A              
     e(  8 -  8) =     17.83181  eV     1   --> A              
     e(  9 - 10) =     18.20995  eV     2   -->   2 A              
     e( 11 - 12) =     34.12191  eV     2   -->   2 A              
     e( 13 - 13) =     36.82920  eV     1   --> A              
     e( 14 - 14) =     42.16245  eV     1   --> A              
     e( 15 - 15) =     47.49542  eV     1   --> A              

 **************************************************************************

[...]
     e(  3 -  4) =    -34.78718  eV     2   -->   2 A              
     e(  5 -  6) =     14.97627  eV     2   -->   2 A              
     e(  7 -  7) =     15.04078  eV     1   --> A              
     e(  8 -  9) =     18.56825  eV     2   -->   2 A              
     e( 10 - 10) =     24.53487  eV     1   --> A              
     e( 11 - 12) =     25.96944  eV     2   -->   2 A              
     e( 13 - 13) =     27.18581  eV     1   --> A              
     e( 14 - 14) =     51.98295  eV     1   --> A              
     e( 15 - 15) =     52.92719  eV     1   --> A              

 **************************************************************************

 **************************************************************************

                    xk=(   0.50000,   0.50000,   0.50000  )

     Band symmetry, C_1 (1)     point group:

     e(  1 -  1) =    -68.66154  eV     1   --> A              
     e(  2 -  4) =    -34.80111  eV     3   -->   3 A              
     e(  5 -  7) =     15.00189  eV     3   -->   3 A              
     e(  8 -  9) =     18.57336  eV     2   -->   2 A              
     e( 10 - 12) =     25.49813  eV     3   -->   3 A              
     e( 13 - 13) =     27.03077  eV     1   --> A              
     e( 14 - 15) =     53.26940  eV     2   -->   2 A              

 **************************************************************************

 **************************************************************************

                    xk=(   0.47500,   0.47500,   0.52500  )

     Band symmetry, C_1 (1)     point group:

     e(  1 -  1) =    -68.66159  eV     1   --> A              
     e(  2 -  3) =    -34.81450  eV     2   -->   2 A              
     e(  4 -  4) =    -34.77369  eV     1   --> A              
     e(  5 -  5) =     14.92361  eV     1   --> A              
     e(  6 -  7) =     15.03774  eV     2   -->   2 A              
     e(  8 -  9) =     18.56772  eV     2   -->   2 A              
     e( 10 - 11) =     25.08165  eV     2   -->   2 A              
     e( 12 - 12) =     26.11305  eV     1   --> A              
     e( 13 - 13) =     27.37883  eV     1   --> A              
     e( 14 - 15) =     51.97509  eV     2   -->   2 A              

 **************************************************************************

 **************************************************************************

                    xk=(   0.45000,   0.45000,   0.55000  )

     Band symmetry, C_1 (1)     point group:

     e(  1 -  1) =    -68.66164  eV     1   --> A              
     e(  2 -  3) =    -34.82716  eV     2   -->   2 A              
     e(  4 -  4) =    -34.74729  eV     1   --> A              
     e(  5 -  5) =     14.83000  eV     1   --> A              
     e(  6 -  7) =     15.07979  eV     2   -->   2 A              
     e(  8 -  9) =     18.54976  eV     2   -->   2 A              
     e( 10 - 11) =     24.72423  eV     2   -->   2 A              
     e( 12 - 12) =     26.18775  eV     1   --> A              
     e( 13 - 13) =     28.40119  eV     1   --> A              
     e( 14 - 15) =     50.45008  eV     2   -->   2 A              

 **************************************************************************

 **************************************************************************

                    xk=(   0.42500,   0.42500,   0.57500  )

     Band symmetry, C_1 (1)     point group:

     e(  1 -  1) =    -68.66152  eV     1   --> A              
     e(  2 -  3) =    -34.83882  eV     2   -->   2 A              
     e(  4 -  4) =    -34.72326  eV     1   --> A              
     e(  5 -  5) =     14.74291  eV     1   --> A              
     e(  6 -  7) =     15.12344  eV     2   -->   2 A              
     e(  8 -  9) =     18.51877  eV     2   -->   2 A              
     e( 10 - 11) =     24.43020  eV     2   -->   2 A              
     e( 12 - 12) =     26.13884  eV     1   --> A              
     e( 13 - 13) =     29.66244  eV     1   --> A              
     e( 14 - 15) =     48.91646  eV     2   -->   2 A              

 **************************************************************************

 **************************************************************************

                    xk=(   0.40000,   0.40000,   0.60000  )

     Band symmetry, C_1 (1)     point group:

     e(  1 -  1) =    -68.66111  eV     1   --> A              
     e(  2 -  3) =    -34.84940  eV     2   -->   2 A              
     e(  4 -  4) =    -34.70303  eV     1   --> A              
     e(  5 -  5) =     14.68061  eV     1   --> A              
     e(  6 -  7) =     15.16341  eV     2   -->   2 A              
     e(  8 -  9) =     18.47511  eV     2   -->   2 A              
     e( 10 - 11) =     24.20308  eV     2   -->   2 A              
     e( 12 - 12) =     26.08775  eV     1   --> A              
     e( 13 - 13) =     31.02441  eV     1   --> A              
     e( 14 - 15) =     47.40654  eV     2   -->   2 A              

 **************************************************************************

 **************************************************************************

                    xk=(   0.37500,   0.37500,   0.62500  )

     Band symmetry, C_1 (1)     point group:

     e(  1 -  1) =    -68.66030  eV     1   --> A              
     e(  2 -  3) =    -34.85871  eV     2   -->   2 A              
     e(  4 -  4) =    -34.68764  eV     1   --> A              
     e(  5 -  5) =     14.65777  eV     1   --> A              
     e(  6 -  7) =     15.19391  eV     2   -->   2 A              
     e(  8 -  9) =     18.42162  eV     2   -->   2 A              
     e( 10 - 11) =     24.04485  eV     2   -->   2 A              
     e( 12 - 12) =     26.05193  eV     1   --> A              
     e( 13 - 13) =     32.45478  eV     1   --> A              
     e( 14 - 15) =     45.93503  eV     2   -->   2 A              

 **************************************************************************

 **************************************************************************

                    xk=(   0.35000,   0.35000,   0.65000  )

     Band symmetry, C_1 (1)     point group:

     e(  1 -  1) =    -68.65901  eV     1   --> A              
     e(  2 -  3) =    -34.86669  eV     2   -->   2 A              
     e(  4 -  4) =    -34.67798  eV     1   --> A              
     e(  5 -  5) =     14.68527  eV     1   --> A              
     e(  6 -  7) =     15.20870  eV     2   -->   2 A              
     e(  8 -  9) =     18.36387  eV     2   -->   2 A              
     e( 10 - 11) =     23.95503  eV     2   -->   2 A              
     e( 12 - 12) =     26.03240  eV     1   --> A              
     e( 13 - 13) =     33.93789  eV     1   --> A              
     e( 14 - 15) =     44.51046  eV     2   -->   2 A              

 **************************************************************************

 **************************************************************************

                    xk=(   0.32500,   0.32500,   0.67500  )

     Band symmetry, C_1 (1)     point group:

     e(  1 -  1) =    -68.65720  eV     1   --> A              
     e(  2 -  3) =    -34.87330  eV     2   -->   2 A              
     e(  4 -  4) =    -34.67450  eV     1   --> A              
     e(  5 -  5) =     14.77071  eV     1   --> A              
     e(  6 -  7) =     15.20166  eV     2   -->   2 A              
     e(  8 -  9) =     18.30984  eV     2   -->   2 A              
     e( 10 - 11) =     23.93054  eV     2   -->   2 A              
     e( 12 - 12) =     26.02706  eV     1   --> A              
     e( 13 - 13) =     35.45947  eV     1   --> A              
     e( 14 - 15) =     43.13840  eV     2   -->   2 A              

 **************************************************************************

 **************************************************************************

                    xk=(   0.30000,   0.30000,   0.70000  )

     Band symmetry, C_1 (1)     point group:

     e(  1 -  1) =    -68.65484  eV     1   --> A              
     e(  2 -  3) =    -34.87855  eV     2   -->   2 A              
     e(  4 -  4) =    -34.67731  eV     1   --> A              
     e(  5 -  5) =     14.91846  eV     1   --> A              
     e(  6 -  7) =     15.16781  eV     2   -->   2 A              
     e(  8 -  9) =     18.26862  eV     2   -->   2 A              
     e( 10 - 11) =     23.96601  eV     2   -->   2 A              
     e( 12 - 12) =     26.03311  eV     1   --> A              
     e( 13 - 13) =     36.99949  eV     1   --> A              
     e( 14 - 15) =     41.82287  eV     2   -->   2 A              

 **************************************************************************

 **************************************************************************

                    xk=(   0.27500,   0.27500,   0.72500  )

     Band symmetry, C_1 (1)     point group:

     e(  1 -  1) =    -68.65198  eV     1   --> A              
     e(  2 -  3) =    -34.88249  eV     2   -->   2 A              
     e(  4 -  4) =    -34.68624  eV     1   --> A              
     e(  5 -  6) =     15.10458  eV     2   -->   2 A              
     e(  7 -  7) =     15.12988  eV     1   --> A              
     e(  8 -  9) =     18.24814  eV     2   -->   2 A              
     e( 10 - 11) =     24.05455  eV     2   -->   2 A              
     e( 12 - 12) =     26.04759  eV     1   --> A              
     e( 13 - 13) =     38.52055  eV     1   --> A              
     e( 14 - 15) =     40.56722  eV     2   -->   2 A              

 **************************************************************************

 **************************************************************************

                    xk=(   0.25000,   0.25000,   0.75000  )

     Band symmetry, C_1 (1)     point group:

     e(  1 -  1) =    -68.64867  eV     1   --> A              
     e(  2 -  3) =    -34.88523  eV     2   -->   2 A              
     e(  4 -  4) =    -34.70063  eV     1   --> A              
     e(  5 -  6) =     15.01283  eV     2   -->   2 A              
     e(  7 -  7) =     15.40358  eV     1   --> A              
     e(  8 -  9) =     18.25328  eV     2   -->   2 A              
     e( 10 - 11) =     24.18853  eV     2   -->   2 A              
     e( 12 - 12) =     26.06764  eV     1   --> A              
     e( 13 - 14) =     39.37457  eV     2   -->   2 A              
     e( 15 - 15) =     39.93589  eV     1   --> A              

 **************************************************************************

 **************************************************************************

                    xk=(   0.22500,   0.22500,   0.77500  )

     Band symmetry, C_1 (1)     point group:

     e(  1 -  1) =    -68.64502  eV     1   --> A              
     e(  2 -  3) =    -34.88687  eV     2   -->   2 A              
     e(  4 -  4) =    -34.71958  eV     1   --> A              
     e(  5 -  6) =     14.89707  eV     2   -->   2 A              
     e(  7 -  7) =     15.73517  eV     1   --> A              
     e(  8 -  9) =     18.28487  eV     2   -->   2 A              
     e( 10 - 11) =     24.36025  eV     2   -->   2 A              
     e( 12 - 12) =     26.09020  eV     1   --> A              
     e( 13 - 14) =     38.24829  eV     2   -->   2 A              
     e( 15 - 15) =     41.01742  eV     1   --> A              

 **************************************************************************

 **************************************************************************

                    xk=(   0.20000,   0.20000,   0.80000  )

     Band symmetry, C_1 (1)     point group:

     e(  1 -  1) =    -68.64114  eV     1   --> A              
     e(  2 -  3) =    -34.88759  eV     2   -->   2 A              
     e(  4 -  4) =    -34.74196  eV     1   --> A              
     e(  5 -  6) =     14.76455  eV     2   -->   2 A              
     e(  7 -  7) =     16.11724  eV     1   --> A              
     e(  8 -  9) =     18.33992  eV     2   -->   2 A              
     e( 10 - 11) =     24.56222  eV     2   -->   2 A              
     e( 12 - 12) =     26.11218  eV     1   --> A              
     e( 13 - 14) =     37.19236  eV     2   -->   2 A              
     e( 15 - 15) =     41.33601  eV     1   --> A              

 **************************************************************************

 **************************************************************************

                    xk=(   0.17500,   0.17500,   0.82500  )

     Band symmetry, C_1 (1)     point group:

     e(  1 -  1) =    -68.63720  eV     1   --> A              
     e(  2 -  3) =    -34.88760  eV     2   -->   2 A              
     e(  4 -  4) =    -34.76645  eV     1   --> A              
     e(  5 -  6) =     14.62386  eV     2   -->   2 A              
     e(  7 -  7) =     16.53894  eV     1   --> A              
     e(  8 -  9) =     18.41279  eV     2   -->   2 A              
     e( 10 - 11) =     24.78704  eV     2   -->   2 A              
     e( 12 - 12) =     26.13044  eV     1   --> A              
     e( 13 - 14) =     36.21177  eV     2   -->   2 A              
     e( 15 - 15) =     40.84060  eV     1   --> A              

 **************************************************************************

 **************************************************************************

                    xk=(   0.15000,   0.15000,   0.85000  )

     Band symmetry, C_1 (1)     point group:

     e(  1 -  1) =    -68.63334  eV     1   --> A              
     e(  2 -  3) =    -34.88707  eV     2   -->   2 A              
     e(  4 -  4) =    -34.79159  eV     1   --> A              
     e(  5 -  6) =     14.48370  eV     2   -->   2 A              
     e(  7 -  7) =     16.98567  eV     1   --> A              
     e(  8 -  9) =     18.49649  eV     2   -->   2 A              
     e( 10 - 11) =     25.02700  eV     2   -->   2 A              
     e( 12 - 12) =     26.14209  eV     1   --> A              
     e( 13 - 14) =     35.31317  eV     2   -->   2 A              
     e( 15 - 15) =     39.99032  eV     1   --> A              

 **************************************************************************

 **************************************************************************

                    xk=(   0.12500,   0.12500,   0.87500  )

     Band symmetry, C_1 (1)     point group:

     e(  1 -  1) =    -68.62972  eV     1   --> A              
     e(  2 -  3) =    -34.88620  eV     2   -->   2 A              
     e(  4 -  4) =    -34.81593  eV     1   --> A              
     e(  5 -  6) =     14.35198  eV     2   -->   2 A              
     e(  7 -  7) =     17.43832  eV     1   --> A              
     e(  8 -  9) =     18.58354  eV     2   -->   2 A              
     e( 10 - 11) =     25.27320  eV     2   -->   2 A              
     e( 12 - 12) =     26.14492  eV     1   --> A              
     e( 13 - 14) =     34.50557  eV     2   -->   2 A              
     e( 15 - 15) =     39.08081  eV     1   --> A              

 **************************************************************************

 **************************************************************************

                    xk=(   0.10000,   0.10000,   0.90000  )

     Band symmetry, C_1 (1)     point group:

     e(  1 -  1) =    -68.62651  eV     1   --> A              
     e(  2 -  3) =    -34.88518  eV     2   -->   2 A              
     e(  4 -  4) =    -34.83807  eV     1   --> A              
     e(  5 -  6) =     14.23538  eV     2   -->   2 A              
     e(  7 -  7) =     17.87301  eV     1   --> A              
     e(  8 -  9) =     18.66667  eV     2   -->   2 A              
     e( 10 - 11) =     25.51440  eV     2   -->   2 A              
     e( 12 - 12) =     26.13814  eV     1   --> A              
     e( 13 - 14) =     33.80128  eV     2   -->   2 A              
     e( 15 - 15) =     38.23677  eV     1   --> A              

 **************************************************************************

 **************************************************************************

                    xk=(   0.07500,   0.07500,   0.92500  )

     Band symmetry, C_1 (1)     point group:

     e(  1 -  1) =    -68.62386  eV     1   --> A              
     e(  2 -  3) =    -34.88420  eV     2   -->   2 A              
     e(  4 -  4) =    -34.85676  eV     1   --> A              
     e(  5 -  6) =     14.13928  eV     2   -->   2 A              
     e(  7 -  7) =     18.26116  eV     1   --> A              
     e(  8 -  9) =     18.73915  eV     2   -->   2 A              
     e( 10 - 11) =     25.73570  eV     2   -->   2 A              
     e( 12 - 12) =     26.12325  eV     1   --> A              
     e( 13 - 14) =     33.21687  eV     2   -->   2 A              
     e( 15 - 15) =     37.52266  eV     1   --> A              

 **************************************************************************

 **************************************************************************

                    xk=(   0.05000,   0.05000,   0.95000  )

     Band symmetry, C_1 (1)     point group:

     e(  1 -  1) =    -68.62186  eV     1   --> A              
     e(  2 -  3) =    -34.88339  eV     2   -->   2 A              
     e(  4 -  4) =    -34.87089  eV     1   --> A              
     e(  5 -  6) =     14.06781  eV     2   -->   2 A              
     e(  7 -  7) =     18.57133  eV     1   --> A              
     e(  8 -  9) =     18.79533  eV     2   -->   2 A              
     e( 10 - 11) =     25.91807  eV     2   -->   2 A              
     e( 12 - 12) =     26.10472  eV     1   --> A              
     e( 13 - 14) =     32.77332  eV     2   -->   2 A              
     e( 15 - 15) =     36.98127  eV     1   --> A              

 **************************************************************************

 **************************************************************************

                    xk=(   0.02500,   0.02500,   0.97500  )

     Band symmetry, C_1 (1)     point group:

     e(  1 -  1) =    -68.62062  eV     1   --> A              
     e(  2 -  3) =    -34.88285  eV     2   -->   2 A              
     e(  4 -  4) =    -34.87968  eV     1   --> A              
     e(  5 -  6) =     14.02379  eV     2   -->   2 A              
     e(  7 -  7) =     18.77296  eV     1   --> A              
     e(  8 -  9) =     18.83089  eV     2   -->   2 A              
     e( 10 - 11) =     26.04001  eV     2   -->   2 A              
     e( 12 - 12) =     26.08920  eV     1   --> A              
     e( 13 - 14) =     32.49386  eV     2   -->   2 A              
     e( 15 - 15) =     36.64337  eV     1   --> A              

 **************************************************************************

 **************************************************************************

                    xk=(   0.00000,   0.00000,   1.00000  )

     Band symmetry, C_1 (1)     point group:

     e(  1 -  1) =    -68.62021  eV     1   --> A              
     e(  2 -  4) =    -34.88267  eV     3   -->   3 A              
     e(  5 -  6) =     14.00894  eV     2   -->   2 A              
     e(  7 -  9) =     18.84304  eV     3   -->   3 A              
     e( 10 - 12) =     26.08313  eV     3   -->   3 A              
     e( 13 - 14) =     32.39809  eV     2   -->   2 A              
     e( 15 - 15) =     36.52847  eV     1   --> A              

 **************************************************************************
 
     BANDS        :      1.45s CPU      2.07s WALL

 
   This run was terminated on:  20:12:55   2Jul2024            

=------------------------------------------------------------------------------=
   JOB DONE.
=------------------------------------------------------------------------------=
