
     Program BANDS v.7.2 starts on  2Jul2024 at 20:13:17 

     This program is part of the open-source Quantum ESPRESSO suite
     for quantum simulation of materials; please cite
         "P. Giannozzi et al., J. Phys.:Condens. Matter 21 395502 (2009);
         "P. Giannozzi et al., J. Phys.:Condens. Matter 29 465901 (2017);
         "P. Giannozzi et al., J. Chem. Phys. 152 154105 (2020);
          URL http://www.quantum-espresso.org", 
     in publications or presentations arising from this work. More details at
     http://www.quantum-espresso.org/quote

     Parallel version (MPI), running on    10 processors

     MPI processes distributed on     1 nodes
     R & G space division:  proc/nbgrp/npool/nimage =      10
     998588 MiB available memory on the printing compute node when the environment starts
 

     Reading xml data from directory:

     ./Fe.save/
     file Fe.pbe-spn-kjpaw_psl.1.0.0.UPF: wavefunction(s)  3P 3D renormalized

     IMPORTANT: XC functional enforced from input :
     Exchange-correlation= PBE
                           (   1   4   3   4   0   0   0)
     Any further DFT definition will be discarded
     Please, verify this is what you really want

 
     Parallelization info
     --------------------
     sticks:   dense  smooth     PW     G-vecs:    dense   smooth      PW
     Min         182      81     24                 4988     1476     248
     Max         183      82     25                 4992     1478     250
     Sum        1829     817    249                49901    14771    2491
 
     Using Slab Decomposition
 

     negative rho (up, down):  0.000E+00 4.783E-05
     Reading collected, re-writing distributed wavefunctions
     high-symmetry point:  0.0000 0.0000 0.0000   x coordinate   0.0000
     high-symmetry point:  1.0000 0.0000 0.0000   x coordinate   1.0000
     high-symmetry point:  0.5000 0.5000 0.0000   x coordinate   1.7071
     high-symmetry point:  0.0000 0.0000 0.0000   x coordinate   2.4142
     high-symmetry point:  0.5000 0.5000 0.5000   x coordinate   3.2802
     high-symmetry point:  0.0000 0.0000 1.0000   x coordinate   4.1463

     Plottable bands (eV) written to file bands_up.dat.gnu
     Bands written to file bands_up.dat

 **************************************************************************

                    xk=(   0.00000,   0.00000,   0.00000  )

     point group C_1 (1)    
     there are  1 classes
     the character table:

       E    
A      1.00

     the symmetry operations in each class and the name of the first element:

     E        1
                                                                 

     Band symmetry, C_1 (1)     point group:

     e(  1 -  1) =    -71.49358  eV     1   --> A              
     e(  2 -  4) =    -37.34805  eV     3   -->   3 A              
     e(  5 -  5) =      8.47699  eV     1   --> A              
     e(  6 -  8) =     14.37230  eV     3   -->   3 A              
     e(  9 - 10) =     15.43314  eV     2   -->   2 A              
     e( 11 - 13) =     40.32292  eV     3   -->   3 A              
     e( 14 - 15) =     45.18350  eV     2   -->   2 A              

 **************************************************************************

 **************************************************************************

                    xk=(   0.05000,   0.00000,   0.00000  )

     Band symmetry, C_1 (1)     point group:

     e(  1 -  1) =    -71.49290  eV     1   --> A              
     e(  2 -  2) =    -37.35061  eV     1   --> A              
     e(  3 -  4) =    -37.34937  eV     2   -->   2 A              
     e(  5 -  5) =      8.52601  eV     1   --> A              
     e(  6 -  7) =     14.37192  eV     2   -->   2 A              
     e(  8 -  8) =     14.38505  eV     1   --> A              
     e(  9 -  9) =     15.41279  eV     1   --> A              
     e( 10 - 10) =     15.44117  eV     1   --> A              
     e( 11 - 11) =     39.96853  eV     1   --> A              
     e( 12 - 13) =     40.27730  eV     2   -->   2 A              
     e( 14 - 14) =     44.55688  eV     1   --> A              
     e( 15 - 15) =     45.64920  eV     1   --> A              

 **************************************************************************

 **************************************************************************

                    xk=(   0.10000,   0.00000,   0.00000  )

     Band symmetry, C_1 (1)     point group:

     e(  1 -  1) =    -71.49088  eV     1   --> A              
     e(  2 -  2) =    -37.35812  eV     1   --> A              
     e(  3 -  4) =    -37.35329  eV     2   -->   2 A              
     e(  5 -  5) =      8.67208  eV     1   --> A              
     e(  6 -  7) =     14.37154  eV     2   -->   2 A              
     e(  8 -  8) =     14.42304  eV     1   --> A              
     e(  9 -  9) =     15.35215  eV     1   --> A              
     e( 10 - 10) =     15.46491  eV     1   --> A              
     e( 11 - 11) =     39.16157  eV     1   --> A              
     e( 12 - 13) =     40.09722  eV     2   -->   2 A              
     e( 14 - 14) =     43.40893  eV     1   --> A              
     e( 15 - 15) =     44.96767  eV     1   --> A              

 **************************************************************************

 **************************************************************************

                    xk=(   0.15000,   0.00000,   0.00000  )

     Band symmetry, C_1 (1)     point group:

     e(  1 -  1) =    -71.48758  eV     1   --> A              
     e(  2 -  2) =    -37.37013  eV     1   --> A              
     e(  3 -  4) =    -37.35971  eV     2   -->   2 A              
     e(  5 -  5) =      8.91217  eV     1   --> A              
     e(  6 -  7) =     14.37332  eV     2   -->   2 A              
     e(  8 -  8) =     14.48546  eV     1   --> A              
     e(  9 -  9) =     15.25247  eV     1   --> A              
     e( 10 - 10) =     15.50345  eV     1   --> A              
     e( 11 - 11) =     38.21946  eV     1   --> A              
     e( 12 - 13) =     39.68026  eV     2   -->   2 A              
     e( 14 - 14) =     42.16382  eV     1   --> A              
     e( 15 - 15) =     44.41270  eV     1   --> A              

 **************************************************************************

 **************************************************************************

                    xk=(   0.20000,   0.00000,   0.00000  )

     Band symmetry, C_1 (1)     point group:

     e(  1 -  1) =    -71.48312  eV     1   --> A              
     e(  2 -  2) =    -37.38600  eV     1   --> A              
     e(  3 -  4) =    -37.36854  eV     2   -->   2 A              
     e(  5 -  5) =      9.24085  eV     1   --> A              
     e(  6 -  7) =     14.38050  eV     2   -->   2 A              
     e(  8 -  8) =     14.57095  eV     1   --> A              
     e(  9 -  9) =     15.11592  eV     1   --> A              
     e( 10 - 10) =     15.55583  eV     1   --> A              
     e( 11 - 11) =     37.28157  eV     1   --> A              
     e( 12 - 13) =     38.97176  eV     2   -->   2 A              
     e( 14 - 14) =     40.91896  eV     1   --> A              
     e( 15 - 15) =     44.28836  eV     1   --> A              

 **************************************************************************

 **************************************************************************

                    xk=(   0.25000,   0.00000,   0.00000  )

     Band symmetry, C_1 (1)     point group:

     e(  1 -  1) =    -71.47764  eV     1   --> A              
     e(  2 -  2) =    -37.40481  eV     1   --> A              
     e(  3 -  4) =    -37.37957  eV     2   -->   2 A              
     e(  5 -  5) =      9.64956  eV     1   --> A              
     e(  6 -  7) =     14.39723  eV     2   -->   2 A              
     e(  8 -  8) =     14.67766  eV     1   --> A              
     e(  9 -  9) =     14.94551  eV     1   --> A              
     e( 10 - 10) =     15.62227  eV     1   --> A              
     e( 11 - 11) =     36.40016  eV     1   --> A              
     e( 12 - 13) =     38.03691  eV     2   -->   2 A              
     e( 14 - 14) =     39.71915  eV     1   --> A              
     e( 15 - 15) =     44.53117  eV     1   --> A              

 **************************************************************************

 **************************************************************************

                    xk=(   0.30000,   0.00000,   0.00000  )

     Band symmetry, C_1 (1)     point group:

     e(  1 -  1) =    -71.47132  eV     1   --> A              
     e(  2 -  2) =    -37.42558  eV     1   --> A              
     e(  3 -  4) =    -37.39259  eV     2   -->   2 A              
     e(  5 -  5) =     10.12528  eV     1   --> A              
     e(  6 -  7) =     14.42798  eV     2   -->   2 A              
     e(  8 -  8) =     14.74526  eV     1   --> A              
     e(  9 -  9) =     14.80319  eV     1   --> A              
     e( 10 - 10) =     15.70595  eV     1   --> A              
     e( 11 - 11) =     35.59527  eV     1   --> A              
     e( 12 - 13) =     36.97789  eV     2   -->   2 A              
     e( 14 - 14) =     38.59438  eV     1   --> A              
     e( 15 - 15) =     45.03667  eV     1   --> A              

 **************************************************************************

 **************************************************************************

                    xk=(   0.35000,   0.00000,   0.00000  )

     Band symmetry, C_1 (1)     point group:

     e(  1 -  1) =    -71.46434  eV     1   --> A              
     e(  2 -  2) =    -37.44721  eV     1   --> A              
     e(  3 -  4) =    -37.40727  eV     2   -->   2 A              
     e(  5 -  5) =     10.64820  eV     1   --> A              
     e(  6 -  7) =     14.47728  eV     2   -->   2 A              
     e(  8 -  8) =     14.52010  eV     1   --> A              
     e(  9 -  9) =     14.94475  eV     1   --> A              
     e( 10 - 10) =     15.81627  eV     1   --> A              
     e( 11 - 11) =     34.87378  eV     1   --> A              
     e( 12 - 13) =     35.86581  eV     2   -->   2 A              
     e( 14 - 14) =     37.56677  eV     1   --> A              
     e( 15 - 15) =     45.72956  eV     1   --> A              

 **************************************************************************

 **************************************************************************

                    xk=(   0.40000,   0.00000,   0.00000  )

     Band symmetry, C_1 (1)     point group:

     e(  1 -  1) =    -71.45694  eV     1   --> A              
     e(  2 -  2) =    -37.46879  eV     1   --> A              
     e(  3 -  4) =    -37.42337  eV     2   -->   2 A              
     e(  5 -  5) =     11.18824  eV     1   --> A              
     e(  6 -  6) =     14.27567  eV     1   --> A              
     e(  7 -  8) =     14.54910  eV     2   -->   2 A              
     e(  9 -  9) =     15.09900  eV     1   --> A              
     e( 10 - 10) =     15.97315  eV     1   --> A              
     e( 11 - 11) =     34.23623  eV     1   --> A              
     e( 12 - 13) =     34.74102  eV     2   -->   2 A              
     e( 14 - 14) =     36.65211  eV     1   --> A              
     e( 15 - 15) =     46.56455  eV     1   --> A              

 **************************************************************************

 **************************************************************************

                    xk=(   0.45000,   0.00000,   0.00000  )

     Band symmetry, C_1 (1)     point group:

     e(  1 -  1) =    -71.44929  eV     1   --> A              
     e(  2 -  2) =    -37.48931  eV     1   --> A              
     e(  3 -  4) =    -37.44042  eV     2   -->   2 A              
     e(  5 -  5) =     11.70181  eV     1   --> A              
     e(  6 -  6) =     14.01839  eV     1   --> A              
     e(  7 -  8) =     14.64678  eV     2   -->   2 A              
     e(  9 -  9) =     15.26245  eV     1   --> A              
     e( 10 - 10) =     16.21171  eV     1   --> A              
     e( 11 - 12) =     33.62696  eV     2   -->   2 A              
     e( 13 - 13) =     33.67983  eV     1   --> A              
     e( 14 - 14) =     35.86004  eV     1   --> A              
     e( 15 - 15) =     47.51355  eV     1   --> A              

 **************************************************************************

 **************************************************************************

                    xk=(   0.50000,   0.00000,   0.00000  )

     Band symmetry, C_1 (1)     point group:

     e(  1 -  1) =    -71.44159  eV     1   --> A              
     e(  2 -  2) =    -37.50803  eV     1   --> A              
     e(  3 -  4) =    -37.45802  eV     2   -->   2 A              
     e(  5 -  5) =     12.13456  eV     1   --> A              
     e(  6 -  6) =     13.75496  eV     1   --> A              
     e(  7 -  8) =     14.77246  eV     2   -->   2 A              
     e(  9 -  9) =     15.43114  eV     1   --> A              
     e( 10 - 10) =     16.58021  eV     1   --> A              
     e( 11 - 12) =     32.53886  eV     2   -->   2 A              
     e( 13 - 13) =     33.19979  eV     1   --> A              
     e( 14 - 14) =     35.19362  eV     1   --> A              
     e( 15 - 15) =     48.55745  eV     1   --> A              

 **************************************************************************

 **************************************************************************

                    xk=(   0.55000,   0.00000,   0.00000  )

     Band symmetry, C_1 (1)     point group:

     e(  1 -  1) =    -71.43408  eV     1   --> A              
     e(  2 -  2) =    -37.52453  eV     1   --> A              
     e(  3 -  4) =    -37.47582  eV     2   -->   2 A              
     e(  5 -  5) =     12.43909  eV     1   --> A              
     e(  6 -  6) =     13.49222  eV     1   --> A              
     e(  7 -  8) =     14.92668  eV     2   -->   2 A              
     e(  9 -  9) =     15.60089  eV     1   --> A              
     e( 10 - 10) =     17.12302  eV     1   --> A              
     e( 11 - 12) =     31.48831  eV     2   -->   2 A              
     e( 13 - 13) =     32.79024  eV     1   --> A              
     e( 14 - 14) =     34.64897  eV     1   --> A              
     e( 15 - 15) =     48.34906  eV     1   --> A              

 **************************************************************************

 **************************************************************************

                    xk=(   0.60000,   0.00000,   0.00000  )

     Band symmetry, C_1 (1)     point group:

     e(  1 -  1) =    -71.42691  eV     1   --> A              
     e(  2 -  2) =    -37.53839  eV     1   --> A              
     e(  3 -  4) =    -37.49330  eV     2   -->   2 A              
     e(  5 -  5) =     12.60012  eV     1   --> A              
     e(  6 -  6) =     13.23697  eV     1   --> A              
     e(  7 -  8) =     15.10846  eV     2   -->   2 A              
     e(  9 -  9) =     15.76755  eV     1   --> A              
     e( 10 - 10) =     17.85559  eV     1   --> A              
     e( 11 - 12) =     30.48567  eV     2   -->   2 A              
     e( 13 - 13) =     32.44489  eV     1   --> A              
     e( 14 - 14) =     34.21522  eV     1   --> A              
     e( 15 - 15) =     46.22207  eV     1   --> A              

 **************************************************************************

 **************************************************************************

                    xk=(   0.65000,   0.00000,   0.00000  )

     Band symmetry, C_1 (1)     point group:

     e(  1 -  1) =    -71.42026  eV     1   --> A              
     e(  2 -  2) =    -37.54960  eV     1   --> A              
     e(  3 -  4) =    -37.51008  eV     2   -->   2 A              
     e(  5 -  5) =     12.63835  eV     1   --> A              
     e(  6 -  6) =     12.99559  eV     1   --> A              
     e(  7 -  8) =     15.31443  eV     2   -->   2 A              
     e(  9 -  9) =     15.92680  eV     1   --> A              
     e( 10 - 10) =     18.75949  eV     1   --> A              
     e( 11 - 12) =     29.54140  eV     2   -->   2 A              
     e( 13 - 13) =     32.15734  eV     1   --> A              
     e( 14 - 14) =     33.87437  eV     1   --> A              
     e( 15 - 15) =     44.14276  eV     1   --> A              

 **************************************************************************

 **************************************************************************

                    xk=(   0.70000,   0.00000,   0.00000  )

     Band symmetry, C_1 (1)     point group:

     e(  1 -  1) =    -71.41425  eV     1   --> A              
     e(  2 -  2) =    -37.55821  eV     1   --> A              
     e(  3 -  4) =    -37.52567  eV     2   -->   2 A              
     e(  5 -  5) =     12.59118  eV     1   --> A              
     e(  6 -  6) =     12.77402  eV     1   --> A              
     e(  7 -  8) =     15.53865  eV     2   -->   2 A              
     e(  9 -  9) =     16.07458  eV     1   --> A              
     e( 10 - 10) =     19.80014  eV     1   --> A              
     e( 11 - 12) =     28.66720  eV     2   -->   2 A              
     e( 13 - 13) =     31.92155  eV     1   --> A              
     e( 14 - 14) =     33.60085  eV     1   --> A              
     e( 15 - 15) =     42.14799  eV     1   --> A              

 **************************************************************************

 **************************************************************************

                    xk=(   0.75000,   0.00000,   0.00000  )

     Band symmetry, C_1 (1)     point group:

     e(  1 -  1) =    -71.40898  eV     1   --> A              
     e(  2 -  2) =    -37.56447  eV     1   --> A              
     e(  3 -  4) =    -37.53965  eV     2   -->   2 A              
     e(  5 -  5) =     12.49530  eV     1   --> A              
     e(  6 -  6) =     12.57751  eV     1   --> A              
     e(  7 -  8) =     15.77207  eV     2   -->   2 A              
     e(  9 -  9) =     16.20707  eV     1   --> A              
     e( 10 - 10) =     20.94109  eV     1   --> A              
     e( 11 - 12) =     27.87678  eV     2   -->   2 A              
     e( 13 - 13) =     31.73197  eV     1   --> A              
     e( 14 - 14) =     33.35899  eV     1   --> A              
     e( 15 - 15) =     40.27493  eV     1   --> A              

 **************************************************************************

 **************************************************************************

                    xk=(   0.80000,   0.00000,   0.00000  )

     Band symmetry, C_1 (1)     point group:

     e(  1 -  1) =    -71.40458  eV     1   --> A              
     e(  2 -  2) =    -37.56881  eV     1   --> A              
     e(  3 -  4) =    -37.55168  eV     2   -->   2 A              
     e(  5 -  5) =     12.38048  eV     1   --> A              
     e(  6 -  6) =     12.41052  eV     1   --> A              
     e(  7 -  8) =     16.00190  eV     2   -->   2 A              
     e(  9 -  9) =     16.32065  eV     1   --> A              
     e( 10 - 10) =     22.14521  eV     1   --> A              
     e( 11 - 12) =     27.18649  eV     2   -->   2 A              
     e( 13 - 13) =     31.58371  eV     1   --> A              
     e( 14 - 14) =     33.09652  eV     1   --> A              
     e( 15 - 15) =     38.58049  eV     1   --> A              

 **************************************************************************

 **************************************************************************

                    xk=(   0.85000,   0.00000,   0.00000  )

     Band symmetry, C_1 (1)     point group:

     e(  1 -  1) =    -71.40109  eV     1   --> A              
     e(  2 -  2) =    -37.57165  eV     1   --> A              
     e(  3 -  4) =    -37.56140  eV     2   -->   2 A              
     e(  5 -  5) =     12.26948  eV     1   --> A              
     e(  6 -  6) =     12.27681  eV     1   --> A              
     e(  7 -  8) =     16.21181  eV     2   -->   2 A              
     e(  9 -  9) =     16.41234  eV     1   --> A              
     e( 10 - 10) =     23.36536  eV     1   --> A              
     e( 11 - 12) =     26.61562  eV     2   -->   2 A              
     e( 13 - 13) =     31.47271  eV     1   --> A              
     e( 14 - 14) =     32.73716  eV     1   --> A              
     e( 15 - 15) =     37.16148  eV     1   --> A              

 **************************************************************************

 **************************************************************************

                    xk=(   0.90000,   0.00000,   0.00000  )

     Band symmetry, C_1 (1)     point group:

     e(  1 -  1) =    -71.39856  eV     1   --> A              
     e(  2 -  2) =    -37.57328  eV     1   --> A              
     e(  3 -  4) =    -37.56854  eV     2   -->   2 A              
     e(  5 -  5) =     12.17897  eV     1   --> A              
     e(  6 -  6) =     12.17923  eV     1   --> A              
     e(  7 -  8) =     16.38269  eV     2   -->   2 A              
     e(  9 -  9) =     16.47967  eV     1   --> A              
     e( 10 - 10) =     24.52093  eV     1   --> A              
     e( 11 - 12) =     26.18546  eV     2   -->   2 A              
     e( 13 - 13) =     31.39574  eV     1   --> A              
     e( 14 - 14) =     32.21331  eV     1   --> A              
     e( 15 - 15) =     36.14561  eV     1   --> A              

 **************************************************************************

 **************************************************************************

                    xk=(   0.95000,   0.00000,   0.00000  )

     Band symmetry, C_1 (1)     point group:

     e(  1 -  1) =    -71.39703  eV     1   --> A              
     e(  2 -  2) =    -37.57412  eV     1   --> A              
     e(  3 -  4) =    -37.57291  eV     2   -->   2 A              
     e(  5 -  5) =     12.11986  eV     1   --> A              
     e(  6 -  6) =     12.12023  eV     1   --> A              
     e(  7 -  8) =     16.49525  eV     2   -->   2 A              
     e(  9 -  9) =     16.52081  eV     1   --> A              
     e( 10 - 10) =     25.44436  eV     1   --> A              
     e( 11 - 12) =     25.91674  eV     2   -->   2 A              
     e( 13 - 13) =     31.35050  eV     1   --> A              
     e( 14 - 14) =     31.62223  eV     1   --> A              
     e( 15 - 15) =     35.58856  eV     1   --> A              

 **************************************************************************

 **************************************************************************

                    xk=(   1.00000,   0.00000,   0.00000  )

     Band symmetry, C_1 (1)     point group:

     e(  1 -  1) =    -71.39652  eV     1   --> A              
     e(  2 -  4) =    -37.57438  eV     3   -->   3 A              
     e(  5 -  6) =     12.09994  eV     2   -->   2 A              
     e(  7 -  9) =     16.53465  eV     3   -->   3 A              
     e( 10 - 12) =     25.82519  eV     3   -->   3 A              
     e( 13 - 14) =     31.33557  eV     2   -->   2 A              
     e( 15 - 15) =     35.42046  eV     1   --> A              

 **************************************************************************

 **************************************************************************

                    xk=(   0.97500,   0.02500,   0.00000  )

     Band symmetry, C_1 (1)     point group:

     e(  1 -  1) =    -71.39677  eV     1   --> A              
     e(  2 -  2) =    -37.57490  eV     1   --> A              
     e(  3 -  3) =    -37.57364  eV     1   --> A              
     e(  4 -  4) =    -37.57300  eV     1   --> A              
     e(  5 -  5) =     12.10994  eV     1   --> A              
     e(  6 -  6) =     12.11011  eV     1   --> A              
     e(  7 -  7) =     16.50648  eV     1   --> A              
     e(  8 -  8) =     16.51476  eV     1   --> A              
     e(  9 -  9) =     16.53611  eV     1   --> A              
     e( 10 - 10) =     25.72831  eV     1   --> A              
     e( 11 - 11) =     25.76731  eV     1   --> A              
     e( 12 - 12) =     25.87106  eV     1   --> A              
     e( 13 - 13) =     31.37974  eV     1   --> A              
     e( 14 - 14) =     31.45501  eV     1   --> A              
     e( 15 - 15) =     35.50190  eV     1   --> A              

 **************************************************************************

 **************************************************************************

                    xk=(   0.95000,   0.05000,   0.00000  )

     Band symmetry, C_1 (1)     point group:

     e(  1 -  1) =    -71.39753  eV     1   --> A              
     e(  2 -  2) =    -37.57644  eV     1   --> A              
     e(  3 -  3) =    -37.57145  eV     1   --> A              
     e(  4 -  4) =    -37.56888  eV     1   --> A              
     e(  5 -  5) =     12.13951  eV     1   --> A              
     e(  6 -  6) =     12.14066  eV     1   --> A              
     e(  7 -  7) =     16.42395  eV     1   --> A              
     e(  8 -  8) =     16.45579  eV     1   --> A              
     e(  9 -  9) =     16.54046  eV     1   --> A              
     e( 10 - 10) =     25.45913  eV     1   --> A              
     e( 11 - 11) =     25.60621  eV     1   --> A              
     e( 12 - 12) =     26.00674  eV     1   --> A              
     e( 13 - 13) =     31.49838  eV     1   --> A              
     e( 14 - 14) =     31.79200  eV     1   --> A              
     e( 15 - 15) =     35.74689  eV     1   --> A              

 **************************************************************************

 **************************************************************************

                    xk=(   0.92500,   0.07500,   0.00000  )

     Band symmetry, C_1 (1)     point group:

     e(  1 -  1) =    -71.39878  eV     1   --> A              
     e(  2 -  2) =    -37.57897  eV     1   --> A              
     e(  3 -  3) =    -37.56787  eV     1   --> A              
     e(  4 -  4) =    -37.56216  eV     1   --> A              
     e(  5 -  5) =     12.18723  eV     1   --> A              
     e(  6 -  6) =     12.19157  eV     1   --> A              
     e(  7 -  7) =     16.29260  eV     1   --> A              
     e(  8 -  8) =     16.35995  eV     1   --> A              
     e(  9 -  9) =     16.54759  eV     1   --> A              
     e( 10 - 10) =     25.06478  eV     1   --> A              
     e( 11 - 11) =     25.37228  eV     1   --> A              
     e( 12 - 12) =     26.22686  eV     1   --> A              
     e( 13 - 13) =     31.65984  eV     1   --> A              
     e( 14 - 14) =     32.29975  eV     1   --> A              
     e( 15 - 15) =     36.15468  eV     1   --> A              

 **************************************************************************

 **************************************************************************

                    xk=(   0.90000,   0.10000,   0.00000  )

     Band symmetry, C_1 (1)     point group:

     e(  1 -  1) =    -71.40049  eV     1   --> A              
     e(  2 -  2) =    -37.58243  eV     1   --> A              
     e(  3 -  3) =    -37.56299  eV     1   --> A              
     e(  4 -  4) =    -37.55296  eV     1   --> A              
     e(  5 -  5) =     12.25064  eV     1   --> A              
     e(  6 -  6) =     12.26287  eV     1   --> A              
     e(  7 -  7) =     16.12046  eV     1   --> A              
     e(  8 -  8) =     16.23118  eV     1   --> A              
     e(  9 -  9) =     16.55731  eV     1   --> A              
     e( 10 - 10) =     24.59080  eV     1   --> A              
     e( 11 - 11) =     25.09959  eV     1   --> A              
     e( 12 - 12) =     26.52369  eV     1   --> A              
     e( 13 - 13) =     31.83364  eV     1   --> A              
     e( 14 - 14) =     32.93330  eV     1   --> A              
     e( 15 - 15) =     36.71802  eV     1   --> A              

 **************************************************************************

 **************************************************************************

                    xk=(   0.87500,   0.12500,   0.00000  )

     Band symmetry, C_1 (1)     point group:

     e(  1 -  1) =    -71.40260  eV     1   --> A              
     e(  2 -  2) =    -37.58673  eV     1   --> A              
     e(  3 -  3) =    -37.55688  eV     1   --> A              
     e(  4 -  4) =    -37.54147  eV     1   --> A              
     e(  5 -  5) =     12.32614  eV     1   --> A              
     e(  6 -  6) =     12.35460  eV     1   --> A              
     e(  7 -  7) =     15.91677  eV     1   --> A              
     e(  8 -  8) =     16.07545  eV     1   --> A              
     e(  9 -  9) =     16.56943  eV     1   --> A              
     e( 10 - 10) =     24.07013  eV     1   --> A              
     e( 11 - 11) =     24.81657  eV     1   --> A              
     e( 12 - 12) =     26.88844  eV     1   --> A              
     e( 13 - 13) =     32.00170  eV     1   --> A              
     e( 14 - 14) =     33.66053  eV     1   --> A              
     e( 15 - 15) =     37.42107  eV     1   --> A              

 **************************************************************************

 **************************************************************************

                    xk=(   0.85000,   0.15000,   0.00000  )

     Band symmetry, C_1 (1)     point group:

     e(  1 -  1) =    -71.40507  eV     1   --> A              
     e(  2 -  2) =    -37.59176  eV     1   --> A              
     e(  3 -  3) =    -37.54973  eV     1   --> A              
     e(  4 -  4) =    -37.52802  eV     1   --> A              
     e(  5 -  5) =     12.40856  eV     1   --> A              
     e(  6 -  6) =     12.46678  eV     1   --> A              
     e(  7 -  7) =     15.69076  eV     1   --> A              
     e(  8 -  8) =     15.90091  eV     1   --> A              
     e(  9 -  9) =     16.58365  eV     1   --> A              
     e( 10 - 10) =     23.52400  eV     1   --> A              
     e( 11 - 11) =     24.54312  eV     1   --> A              
     e( 12 - 12) =     27.31231  eV     1   --> A              
     e( 13 - 13) =     32.15818  eV     1   --> A              
     e( 14 - 14) =     34.46116  eV     1   --> A              
     e( 15 - 15) =     38.24181  eV     1   --> A              

 **************************************************************************

 **************************************************************************

                    xk=(   0.82500,   0.17500,   0.00000  )

     Band symmetry, C_1 (1)     point group:

     e(  1 -  1) =    -71.40785  eV     1   --> A              
     e(  2 -  2) =    -37.59741  eV     1   --> A              
     e(  3 -  3) =    -37.54171  eV     1   --> A              
     e(  4 -  4) =    -37.51293  eV     1   --> A              
     e(  5 -  5) =     12.49111  eV     1   --> A              
     e(  6 -  6) =     12.59939  eV     1   --> A              
     e(  7 -  7) =     15.45109  eV     1   --> A              
     e(  8 -  8) =     15.71825  eV     1   --> A              
     e(  9 -  9) =     16.59961  eV     1   --> A              
     e( 10 - 10) =     22.96576  eV     1   --> A              
     e( 11 - 11) =     24.29147  eV     1   --> A              
     e( 12 - 12) =     27.78717  eV     1   --> A              
     e( 13 - 13) =     32.30448  eV     1   --> A              
     e( 14 - 14) =     35.32290  eV     1   --> A              
     e( 15 - 15) =     39.15583  eV     1   --> A              

 **************************************************************************

 **************************************************************************

                    xk=(   0.80000,   0.20000,   0.00000  )

     Band symmetry, C_1 (1)     point group:

     e(  1 -  1) =    -71.41087  eV     1   --> A              
     e(  2 -  2) =    -37.60355  eV     1   --> A              
     e(  3 -  3) =    -37.53302  eV     1   --> A              
     e(  4 -  4) =    -37.49655  eV     1   --> A              
     e(  5 -  5) =     12.56507  eV     1   --> A              
     e(  6 -  6) =     12.75240  eV     1   --> A              
     e(  7 -  7) =     15.20548  eV     1   --> A              
     e(  8 -  8) =     15.54045  eV     1   --> A              
     e(  9 -  9) =     16.61693  eV     1   --> A              
     e( 10 - 10) =     22.40395  eV     1   --> A              
     e( 11 - 11) =     24.06794  eV     1   --> A              
     e( 12 - 12) =     28.30589  eV     1   --> A              
     e( 13 - 13) =     32.44469  eV     1   --> A              
     e( 14 - 14) =     36.23839  eV     1   --> A              
     e( 15 - 15) =     40.13784  eV     1   --> A              

 **************************************************************************

 **************************************************************************

                    xk=(   0.77500,   0.22500,   0.00000  )

     Band symmetry, C_1 (1)     point group:

     e(  1 -  1) =    -71.41403  eV     1   --> A              
     e(  2 -  2) =    -37.60996  eV     1   --> A              
     e(  3 -  3) =    -37.52383  eV     1   --> A              
     e(  4 -  4) =    -37.47928  eV     1   --> A              
     e(  5 -  5) =     12.62022  eV     1   --> A              
     e(  6 -  6) =     12.92575  eV     1   --> A              
     e(  7 -  7) =     14.96055  eV     1   --> A              
     e(  8 -  8) =     15.38218  eV     1   --> A              
     e(  9 -  9) =     16.63522  eV     1   --> A              
     e( 10 - 10) =     21.84425  eV     1   --> A              
     e( 11 - 11) =     23.87477  eV     1   --> A              
     e( 12 - 12) =     28.86235  eV     1   --> A              
     e( 13 - 13) =     32.58317  eV     1   --> A              
     e( 14 - 14) =     37.20315  eV     1   --> A              
     e( 15 - 15) =     41.15980  eV     1   --> A              

 **************************************************************************

 **************************************************************************

                    xk=(   0.75000,   0.25000,   0.00000  )

     Band symmetry, C_1 (1)     point group:

     e(  1 -  1) =    -71.41728  eV     1   --> A              
     e(  2 -  2) =    -37.61656  eV     1   --> A              
     e(  3 -  3) =    -37.51444  eV     1   --> A              
     e(  4 -  4) =    -37.46155  eV     1   --> A              
     e(  5 -  5) =     12.64606  eV     1   --> A              
     e(  6 -  6) =     13.11923  eV     1   --> A              
     e(  7 -  7) =     14.72188  eV     1   --> A              
     e(  8 -  8) =     15.25783  eV     1   --> A              
     e(  9 -  9) =     16.65400  eV     1   --> A              
     e( 10 - 10) =     21.29060  eV     1   --> A              
     e( 11 - 11) =     23.71147  eV     1   --> A              
     e( 12 - 12) =     29.45137  eV     1   --> A              
     e( 13 - 13) =     32.72348  eV     1   --> A              
     e( 14 - 14) =     38.21435  eV     1   --> A              
     e( 15 - 15) =     42.18349  eV     1   --> A              

 **************************************************************************

 **************************************************************************

                    xk=(   0.72500,   0.27500,   0.00000  )

     Band symmetry, C_1 (1)     point group:

     e(  1 -  1) =    -71.42053  eV     1   --> A              
     e(  2 -  2) =    -37.62315  eV     1   --> A              
     e(  3 -  3) =    -37.50503  eV     1   --> A              
     e(  4 -  4) =    -37.44376  eV     1   --> A              
     e(  5 -  5) =     12.63508  eV     1   --> A              
     e(  6 -  6) =     13.33258  eV     1   --> A              
     e(  7 -  7) =     14.49427  eV     1   --> A              
     e(  8 -  8) =     15.17824  eV     1   --> A              
     e(  9 -  9) =     16.67281  eV     1   --> A              
     e( 10 - 10) =     20.74599  eV     1   --> A              
     e( 11 - 11) =     23.57607  eV     1   --> A              
     e( 12 - 12) =     30.06847  eV     1   --> A              
     e( 13 - 13) =     32.86810  eV     1   --> A              
     e( 14 - 14) =     39.27004  eV     1   --> A              
     e( 15 - 15) =     43.14175  eV     1   --> A              

 **************************************************************************

 **************************************************************************

                    xk=(   0.70000,   0.30000,   0.00000  )

     Band symmetry, C_1 (1)     point group:

     e(  1 -  1) =    -71.42370  eV     1   --> A              
     e(  2 -  2) =    -37.62956  eV     1   --> A              
     e(  3 -  3) =    -37.49583  eV     1   --> A              
     e(  4 -  4) =    -37.42638  eV     1   --> A              
     e(  5 -  5) =     12.58607  eV     1   --> A              
     e(  6 -  6) =     13.56536  eV     1   --> A              
     e(  7 -  7) =     14.28164  eV     1   --> A              
     e(  8 -  8) =     15.14700  eV     1   --> A              
     e(  9 -  9) =     16.69123  eV     1   --> A              
     e( 10 - 10) =     20.21288  eV     1   --> A              
     e( 11 - 11) =     23.46576  eV     1   --> A              
     e( 12 - 12) =     30.70961  eV     1   --> A              
     e( 13 - 13) =     33.01826  eV     1   --> A              
     e( 14 - 14) =     40.36855  eV     1   --> A              
     e( 15 - 15) =     43.89718  eV     1   --> A              

 **************************************************************************

 **************************************************************************

                    xk=(   0.67500,   0.32500,   0.00000  )

     Band symmetry, C_1 (1)     point group:

     e(  1 -  1) =    -71.42671  eV     1   --> A              
     e(  2 -  2) =    -37.63566  eV     1   --> A              
     e(  3 -  3) =    -37.48710  eV     1   --> A              
     e(  4 -  4) =    -37.40985  eV     1   --> A              
     e(  5 -  5) =     12.50544  eV     1   --> A              
     e(  6 -  6) =     13.81682  eV     1   --> A              
     e(  7 -  7) =     14.08723  eV     1   --> A              
     e(  8 -  8) =     15.15905  eV     1   --> A              
     e(  9 -  9) =     16.70874  eV     1   --> A              
     e( 10 - 10) =     19.69352  eV     1   --> A              
     e( 11 - 11) =     23.37741  eV     1   --> A              
     e( 12 - 12) =     31.37077  eV     1   --> A              
     e( 13 - 13) =     33.17375  eV     1   --> A              
     e( 14 - 14) =     41.50800  eV     1   --> A              
     e( 15 - 15) =     43.73826  eV     1   --> A              

 **************************************************************************

 **************************************************************************

                    xk=(   0.65000,   0.35000,   0.00000  )

     Band symmetry, C_1 (1)     point group:

     e(  1 -  1) =    -71.42948  eV     1   --> A              
     e(  2 -  2) =    -37.64126  eV     1   --> A              
     e(  3 -  3) =    -37.47900  eV     1   --> A              
     e(  4 -  4) =    -37.39455  eV     1   --> A              
     e(  5 -  5) =     12.40495  eV     1   --> A              
     e(  6 -  6) =     13.91382  eV     1   --> A              
     e(  7 -  7) =     14.08578  eV     1   --> A              
     e(  8 -  8) =     15.20311  eV     1   --> A              
     e(  9 -  9) =     16.72496  eV     1   --> A              
     e( 10 - 10) =     19.19030  eV     1   --> A              
     e( 11 - 11) =     23.30795  eV     1   --> A              
     e( 12 - 12) =     32.04747  eV     1   --> A              
     e( 13 - 13) =     33.33266  eV     1   --> A              
     e( 14 - 14) =     42.68565  eV     1   --> A              
     e( 15 - 15) =     42.80071  eV     1   --> A              

 **************************************************************************

 **************************************************************************

                    xk=(   0.62500,   0.37500,   0.00000  )

     Band symmetry, C_1 (1)     point group:

     e(  1 -  1) =    -71.43195  eV     1   --> A              
     e(  2 -  2) =    -37.64627  eV     1   --> A              
     e(  3 -  3) =    -37.47180  eV     1   --> A              
     e(  4 -  4) =    -37.38089  eV     1   --> A              
     e(  5 -  5) =     12.29768  eV     1   --> A              
     e(  6 -  6) =     13.76358  eV     1   --> A              
     e(  7 -  7) =     14.37024  eV     1   --> A              
     e(  8 -  8) =     15.26571  eV     1   --> A              
     e(  9 -  9) =     16.73942  eV     1   --> A              
     e( 10 - 10) =     18.70616  eV     1   --> A              
     e( 11 - 11) =     23.25451  eV     1   --> A              
     e( 12 - 12) =     32.73367  eV     1   --> A              
     e( 13 - 13) =     33.49098  eV     1   --> A              
     e( 14 - 14) =     41.89341  eV     1   --> A              
     e( 15 - 15) =     43.65959  eV     1   --> A              

 **************************************************************************

 **************************************************************************

                    xk=(   0.60000,   0.40000,   0.00000  )

     Band symmetry, C_1 (1)     point group:

     e(  1 -  1) =    -71.43407  eV     1   --> A              
     e(  2 -  2) =    -37.65055  eV     1   --> A              
     e(  3 -  3) =    -37.46564  eV     1   --> A              
     e(  4 -  4) =    -37.36919  eV     1   --> A              
     e(  5 -  5) =     12.19537  eV     1   --> A              
     e(  6 -  6) =     13.63835  eV     1   --> A              
     e(  7 -  7) =     14.66654  eV     1   --> A              
     e(  8 -  8) =     15.33416  eV     1   --> A              
     e(  9 -  9) =     16.75179  eV     1   --> A              
     e( 10 - 10) =     18.24550  eV     1   --> A              
     e( 11 - 11) =     23.21452  eV     1   --> A              
     e( 12 - 12) =     33.41980  eV     1   --> A              
     e( 13 - 13) =     33.64231  eV     1   --> A              
     e( 14 - 14) =     41.02625  eV     1   --> A              
     e( 15 - 15) =     43.17632  eV     1   --> A              

 **************************************************************************

 **************************************************************************

                    xk=(   0.57500,   0.42500,   0.00000  )

     Band symmetry, C_1 (1)     point group:

     e(  1 -  1) =    -71.43577  eV     1   --> A              
     e(  2 -  2) =    -37.65399  eV     1   --> A              
     e(  3 -  3) =    -37.46068  eV     1   --> A              
     e(  4 -  4) =    -37.35977  eV     1   --> A              
     e(  5 -  5) =     12.10722  eV     1   --> A              
     e(  6 -  6) =     13.53952  eV     1   --> A              
     e(  7 -  7) =     14.96746  eV     1   --> A              
     e(  8 -  8) =     15.39796  eV     1   --> A              
     e(  9 -  9) =     16.76176  eV     1   --> A              
     e( 10 - 10) =     17.81616  eV     1   --> A              
     e( 11 - 11) =     23.18579  eV     1   --> A              
     e( 12 - 12) =     33.77774  eV     1   --> A              
     e( 13 - 13) =     34.08823  eV     1   --> A              
     e( 14 - 14) =     40.21701  eV     1   --> A              
     e( 15 - 15) =     42.73448  eV     1   --> A              

 **************************************************************************

 **************************************************************************

                    xk=(   0.55000,   0.45000,   0.00000  )

     Band symmetry, C_1 (1)     point group:

     e(  1 -  1) =    -71.43701  eV     1   --> A              
     e(  2 -  2) =    -37.65651  eV     1   --> A              
     e(  3 -  3) =    -37.45705  eV     1   --> A              
     e(  4 -  4) =    -37.35283  eV     1   --> A              
     e(  5 -  5) =     12.03991  eV     1   --> A              
     e(  6 -  6) =     13.46818  eV     1   --> A              
     e(  7 -  7) =     15.25674  eV     1   --> A              
     e(  8 -  8) =     15.44914  eV     1   --> A              
     e(  9 -  9) =     16.76906  eV     1   --> A              
     e( 10 - 10) =     17.43484  eV     1   --> A              
     e( 11 - 11) =     23.16659  eV     1   --> A              
     e( 12 - 12) =     33.88644  eV     1   --> A              
     e( 13 - 13) =     34.70198  eV     1   --> A              
     e( 14 - 14) =     39.50268  eV     1   --> A              
     e( 15 - 15) =     42.38781  eV     1   --> A              

 **************************************************************************

 **************************************************************************

                    xk=(   0.52500,   0.47500,   0.00000  )

     Band symmetry, C_1 (1)     point group:

     e(  1 -  1) =    -71.43777  eV     1   --> A              
     e(  2 -  2) =    -37.65804  eV     1   --> A              
     e(  3 -  3) =    -37.45484  eV     1   --> A              
     e(  4 -  4) =    -37.34861  eV     1   --> A              
     e(  5 -  5) =     11.99786  eV     1   --> A              
     e(  6 -  6) =     13.42508  eV     1   --> A              
     e(  7 -  7) =     15.48202  eV     1   --> A              
     e(  8 -  8) =     15.49437  eV     1   --> A              
     e(  9 -  9) =     16.77352  eV     1   --> A              
     e( 10 - 10) =     17.14187  eV     1   --> A              
     e( 11 - 11) =     23.15558  eV     1   --> A              
     e( 12 - 12) =     33.95743  eV     1   --> A              
     e( 13 - 13) =     35.17931  eV     1   --> A              
     e( 14 - 14) =     38.96501  eV     1   --> A              
     e( 15 - 15) =     42.16773  eV     1   --> A              

 **************************************************************************

 **************************************************************************

                    xk=(   0.50000,   0.50000,   0.00000  )

     Band symmetry, C_1 (1)     point group:

     e(  1 -  1) =    -71.43803  eV     1   --> A              
     e(  2 -  2) =    -37.65857  eV     1   --> A              
     e(  3 -  3) =    -37.45410  eV     1   --> A              
     e(  4 -  4) =    -37.34719  eV     1   --> A              
     e(  5 -  5) =     11.98356  eV     1   --> A              
     e(  6 -  6) =     13.41066  eV     1   --> A              
     e(  7 -  7) =     15.49335  eV     1   --> A              
     e(  8 -  8) =     15.59534  eV     1   --> A              
     e(  9 -  9) =     16.77502  eV     1   --> A              
     e( 10 - 10) =     17.02241  eV     1   --> A              
     e( 11 - 11) =     23.15200  eV     1   --> A              
     e( 12 - 12) =     33.98217  eV     1   --> A              
     e( 13 - 13) =     35.37202  eV     1   --> A              
     e( 14 - 14) =     38.75218  eV     1   --> A              
     e( 15 - 15) =     42.09234  eV     1   --> A              

 **************************************************************************

 **************************************************************************

                    xk=(   0.47500,   0.47500,   0.00000  )

     Band symmetry, C_1 (1)     point group:

     e(  1 -  1) =    -71.43837  eV     1   --> A              
     e(  2 -  2) =    -37.65668  eV     1   --> A              
     e(  3 -  3) =    -37.45345  eV     1   --> A              
     e(  4 -  4) =    -37.34719  eV     1   --> A              
     e(  5 -  5) =     11.98217  eV     1   --> A              
     e(  6 -  6) =     13.41620  eV     1   --> A              
     e(  7 -  7) =     15.48726  eV     1   --> A              
     e(  8 -  8) =     15.59381  eV     1   --> A              
     e(  9 -  9) =     16.75709  eV     1   --> A              
     e( 10 - 10) =     16.91555  eV     1   --> A              
     e( 11 - 11) =     23.30701  eV     1   --> A              
     e( 12 - 12) =     34.01155  eV     1   --> A              
     e( 13 - 13) =     35.41420  eV     1   --> A              
     e( 14 - 14) =     38.75725  eV     1   --> A              
     e( 15 - 15) =     42.08935  eV     1   --> A              

 **************************************************************************

 **************************************************************************

                    xk=(   0.45000,   0.45000,   0.00000  )

     Band symmetry, C_1 (1)     point group:

     e(  1 -  1) =    -71.43939  eV     1   --> A              
     e(  2 -  2) =    -37.65109  eV     1   --> A              
     e(  3 -  3) =    -37.45152  eV     1   --> A              
     e(  4 -  4) =    -37.34721  eV     1   --> A              
     e(  5 -  5) =     11.97625  eV     1   --> A              
     e(  6 -  6) =     13.43271  eV     1   --> A              
     e(  7 -  7) =     15.46782  eV     1   --> A              
     e(  8 -  8) =     15.58921  eV     1   --> A              
     e(  9 -  9) =     16.62908  eV     1   --> A              
     e( 10 - 10) =     16.70408  eV     1   --> A              
     e( 11 - 11) =     23.74066  eV     1   --> A              
     e( 12 - 12) =     34.09943  eV     1   --> A              
     e( 13 - 13) =     35.53997  eV     1   --> A              
     e( 14 - 14) =     38.77247  eV     1   --> A              
     e( 15 - 15) =     42.08124  eV     1   --> A              

 **************************************************************************

 **************************************************************************

                    xk=(   0.42500,   0.42500,   0.00000  )

     Band symmetry, C_1 (1)     point group:

     e(  1 -  1) =    -71.44106  eV     1   --> A              
     e(  2 -  2) =    -37.64190  eV     1   --> A              
     e(  3 -  3) =    -37.44835  eV     1   --> A              
     e(  4 -  4) =    -37.34723  eV     1   --> A              
     e(  5 -  5) =     11.96035  eV     1   --> A              
     e(  6 -  6) =     13.45986  eV     1   --> A              
     e(  7 -  7) =     15.42935  eV     1   --> A              
     e(  8 -  8) =     15.58183  eV     1   --> A              
     e(  9 -  9) =     16.24079  eV     1   --> A              
     e( 10 - 10) =     16.61819  eV     1   --> A              
     e( 11 - 11) =     24.38586  eV     1   --> A              
     e( 12 - 12) =     34.24505  eV     1   --> A              
     e( 13 - 13) =     35.74701  eV     1   --> A              
     e( 14 - 14) =     38.79795  eV     1   --> A              
     e( 15 - 15) =     42.07045  eV     1   --> A              

 **************************************************************************

 **************************************************************************

                    xk=(   0.40000,   0.40000,   0.00000  )

     Band symmetry, C_1 (1)     point group:

     e(  1 -  1) =    -71.44333  eV     1   --> A              
     e(  2 -  2) =    -37.62933  eV     1   --> A              
     e(  3 -  3) =    -37.44400  eV     1   --> A              
     e(  4 -  4) =    -37.34724  eV     1   --> A              
     e(  5 -  5) =     11.92466  eV     1   --> A              
     e(  6 -  6) =     13.49712  eV     1   --> A              
     e(  7 -  7) =     15.34701  eV     1   --> A              
     e(  8 -  8) =     15.57209  eV     1   --> A              
     e(  9 -  9) =     15.84730  eV     1   --> A              
     e( 10 - 10) =     16.50291  eV     1   --> A              
     e( 11 - 11) =     25.17983  eV     1   --> A              
     e( 12 - 12) =     34.44711  eV     1   --> A              
     e( 13 - 13) =     36.03171  eV     1   --> A              
     e( 14 - 14) =     38.83386  eV     1   --> A              
     e( 15 - 15) =     42.06075  eV     1   --> A              

 **************************************************************************

 **************************************************************************

                    xk=(   0.37500,   0.37500,   0.00000  )

     Band symmetry, C_1 (1)     point group:

     e(  1 -  1) =    -71.44618  eV     1   --> A              
     e(  2 -  2) =    -37.61373  eV     1   --> A              
     e(  3 -  3) =    -37.43864  eV     1   --> A              
     e(  4 -  4) =    -37.34731  eV     1   --> A              
     e(  5 -  5) =     11.85474  eV     1   --> A              
     e(  6 -  6) =     13.54364  eV     1   --> A              
     e(  7 -  7) =     15.14156  eV     1   --> A              
     e(  8 -  8) =     15.56034  eV     1   --> A              
     e(  9 -  9) =     15.58543  eV     1   --> A              
     e( 10 - 10) =     16.36255  eV     1   --> A              
     e( 11 - 11) =     26.07807  eV     1   --> A              
     e( 12 - 12) =     34.70382  eV     1   --> A              
     e( 13 - 13) =     36.38943  eV     1   --> A              
     e( 14 - 14) =     38.88036  eV     1   --> A              
     e( 15 - 15) =     42.05686  eV     1   --> A              

 **************************************************************************

 **************************************************************************

                    xk=(   0.35000,   0.35000,   0.00000  )

     Band symmetry, C_1 (1)     point group:

     e(  1 -  1) =    -71.44951  eV     1   --> A              
     e(  2 -  2) =    -37.59540  eV     1   --> A              
     e(  3 -  3) =    -37.43235  eV     1   --> A              
     e(  4 -  4) =    -37.34737  eV     1   --> A              
     e(  5 -  5) =     11.73315  eV     1   --> A              
     e(  6 -  6) =     13.59852  eV     1   --> A              
     e(  7 -  7) =     14.83699  eV     1   --> A              
     e(  8 -  8) =     15.47602  eV     1   --> A              
     e(  9 -  9) =     15.54723  eV     1   --> A              
     e( 10 - 10) =     16.20220  eV     1   --> A              
     e( 11 - 11) =     27.05160  eV     1   --> A              
     e( 12 - 12) =     35.01287  eV     1   --> A              
     e( 13 - 13) =     36.81486  eV     1   --> A              
     e( 14 - 14) =     38.93770  eV     1   --> A              
     e( 15 - 15) =     42.06421  eV     1   --> A              

 **************************************************************************

 **************************************************************************

                    xk=(   0.32500,   0.32500,   0.00000  )

     Band symmetry, C_1 (1)     point group:

     e(  1 -  1) =    -71.45323  eV     1   --> A              
     e(  2 -  2) =    -37.57481  eV     1   --> A              
     e(  3 -  3) =    -37.42527  eV     1   --> A              
     e(  4 -  4) =    -37.34743  eV     1   --> A              
     e(  5 -  5) =     11.54546  eV     1   --> A              
     e(  6 -  6) =     13.66056  eV     1   --> A              
     e(  7 -  7) =     14.56888  eV     1   --> A              
     e(  8 -  8) =     15.41475  eV     1   --> A              
     e(  9 -  9) =     15.53336  eV     1   --> A              
     e( 10 - 10) =     16.02719  eV     1   --> A              
     e( 11 - 11) =     28.08121  eV     1   --> A              
     e( 12 - 12) =     35.37136  eV     1   --> A              
     e( 13 - 13) =     37.30233  eV     1   --> A              
     e( 14 - 14) =     39.00609  eV     1   --> A              
     e( 15 - 15) =     42.08850  eV     1   --> A              

 **************************************************************************

 **************************************************************************

                    xk=(   0.30000,   0.30000,   0.00000  )

     Band symmetry, C_1 (1)     point group:

     e(  1 -  1) =    -71.45726  eV     1   --> A              
     e(  2 -  2) =    -37.55244  eV     1   --> A              
     e(  3 -  3) =    -37.41760  eV     1   --> A              
     e(  4 -  4) =    -37.34748  eV     1   --> A              
     e(  5 -  5) =     11.28948  eV     1   --> A              
     e(  6 -  6) =     13.72840  eV     1   --> A              
     e(  7 -  7) =     14.38398  eV     1   --> A              
     e(  8 -  8) =     15.36746  eV     1   --> A              
     e(  9 -  9) =     15.51927  eV     1   --> A              
     e( 10 - 10) =     15.84283  eV     1   --> A              
     e( 11 - 11) =     29.15341  eV     1   --> A              
     e( 12 - 12) =     35.77574  eV     1   --> A              
     e( 13 - 13) =     37.84608  eV     1   --> A              
     e( 14 - 14) =     39.08567  eV     1   --> A              
     e( 15 - 15) =     42.13556  eV     1   --> A              

 **************************************************************************

 **************************************************************************

                    xk=(   0.27500,   0.27500,   0.00000  )

     Band symmetry, C_1 (1)     point group:

     e(  1 -  1) =    -71.46151  eV     1   --> A              
     e(  2 -  2) =    -37.52884  eV     1   --> A              
     e(  3 -  3) =    -37.40954  eV     1   --> A              
     e(  4 -  4) =    -37.34757  eV     1   --> A              
     e(  5 -  5) =     10.97885  eV     1   --> A              
     e(  6 -  6) =     13.80050  eV     1   --> A              
     e(  7 -  7) =     14.28129  eV     1   --> A              
     e(  8 -  8) =     15.32795  eV     1   --> A              
     e(  9 -  9) =     15.50543  eV     1   --> A              
     e( 10 - 10) =     15.65428  eV     1   --> A              
     e( 11 - 11) =     30.25773  eV     1   --> A              
     e( 12 - 12) =     36.22161  eV     1   --> A              
     e( 13 - 13) =     38.44046  eV     1   --> A              
     e( 14 - 14) =     39.17648  eV     1   --> A              
     e( 15 - 15) =     42.21131  eV     1   --> A              

 **************************************************************************

 **************************************************************************

                    xk=(   0.25000,   0.25000,   0.00000  )

     Band symmetry, C_1 (1)     point group:

     e(  1 -  1) =    -71.46586  eV     1   --> A              
     e(  2 -  2) =    -37.50461  eV     1   --> A              
     e(  3 -  3) =    -37.40124  eV     1   --> A              
     e(  4 -  4) =    -37.34764  eV     1   --> A              
     e(  5 -  5) =     10.63634  eV     1   --> A              
     e(  6 -  6) =     13.87519  eV     1   --> A              
     e(  7 -  7) =     14.24183  eV     1   --> A              
     e(  8 -  8) =     15.29636  eV     1   --> A              
     e(  9 -  9) =     15.46639  eV     1   --> A              
     e( 10 - 10) =     15.49231  eV     1   --> A              
     e( 11 - 11) =     31.38511  eV     1   --> A              
     e( 12 - 12) =     36.70341  eV     1   --> A              
     e( 13 - 13) =     39.08005  eV     1   --> A              
     e( 14 - 14) =     39.27831  eV     1   --> A              
     e( 15 - 15) =     42.32171  eV     1   --> A              

 **************************************************************************

 **************************************************************************

                    xk=(   0.22500,   0.22500,   0.00000  )

     Band symmetry, C_1 (1)     point group:

     e(  1 -  1) =    -71.47020  eV     1   --> A              
     e(  2 -  2) =    -37.48026  eV     1   --> A              
     e(  3 -  3) =    -37.39295  eV     1   --> A              
     e(  4 -  4) =    -37.34770  eV     1   --> A              
     e(  5 -  5) =     10.28466  eV     1   --> A              
     e(  6 -  6) =     13.95067  eV     1   --> A              
     e(  7 -  7) =     14.24328  eV     1   --> A              
     e(  8 -  8) =     15.27450  eV     1   --> A              
     e(  9 -  9) =     15.28361  eV     1   --> A              
     e( 10 - 10) =     15.48029  eV     1   --> A              
     e( 11 - 11) =     32.52667  eV     1   --> A              
     e( 12 - 12) =     37.21387  eV     1   --> A              
     e( 13 - 13) =     39.39061  eV     1   --> A              
     e( 14 - 14) =     39.75981  eV     1   --> A              
     e( 15 - 15) =     42.47286  eV     1   --> A              

 **************************************************************************

 **************************************************************************

                    xk=(   0.20000,   0.20000,   0.00000  )

     Band symmetry, C_1 (1)     point group:

     e(  1 -  1) =    -71.47443  eV     1   --> A              
     e(  2 -  2) =    -37.45649  eV     1   --> A              
     e(  3 -  3) =    -37.38483  eV     1   --> A              
     e(  4 -  4) =    -37.34776  eV     1   --> A              
     e(  5 -  5) =      9.94174  eV     1   --> A              
     e(  6 -  6) =     14.02508  eV     1   --> A              
     e(  7 -  7) =     14.26630  eV     1   --> A              
     e(  8 -  8) =     15.10990  eV     1   --> A              
     e(  9 -  9) =     15.26462  eV     1   --> A              
     e( 10 - 10) =     15.46957  eV     1   --> A              
     e( 11 - 11) =     33.67275  eV     1   --> A              
     e( 12 - 12) =     37.74312  eV     1   --> A              
     e( 13 - 13) =     39.51230  eV     1   --> A              
     e( 14 - 14) =     40.47511  eV     1   --> A              
     e( 15 - 15) =     42.67114  eV     1   --> A              

 **************************************************************************

 **************************************************************************

                    xk=(   0.17500,   0.17500,   0.00000  )

     Band symmetry, C_1 (1)     point group:

     e(  1 -  1) =    -71.47845  eV     1   --> A              
     e(  2 -  2) =    -37.43384  eV     1   --> A              
     e(  3 -  3) =    -37.37713  eV     1   --> A              
     e(  4 -  4) =    -37.34781  eV     1   --> A              
     e(  5 -  5) =      9.62051  eV     1   --> A              
     e(  6 -  6) =     14.09652  eV     1   --> A              
     e(  7 -  7) =     14.29656  eV     1   --> A              
     e(  8 -  8) =     14.94874  eV     1   --> A              
     e(  9 -  9) =     15.26822  eV     1   --> A              
     e( 10 - 10) =     15.46030  eV     1   --> A              
     e( 11 - 11) =     34.81182  eV     1   --> A              
     e( 12 - 12) =     38.27727  eV     1   --> A              
     e( 13 - 13) =     39.64148  eV     1   --> A              
     e( 14 - 14) =     41.22168  eV     1   --> A              
     e( 15 - 15) =     42.92349  eV     1   --> A              

 **************************************************************************

 **************************************************************************

                    xk=(   0.15000,   0.15000,   0.00000  )

     Band symmetry, C_1 (1)     point group:

     e(  1 -  1) =    -71.48216  eV     1   --> A              
     e(  2 -  2) =    -37.41289  eV     1   --> A              
     e(  3 -  3) =    -37.37002  eV     1   --> A              
     e(  4 -  4) =    -37.34786  eV     1   --> A              
     e(  5 -  5) =      9.32994  eV     1   --> A              
     e(  6 -  6) =     14.16310  eV     1   --> A              
     e(  7 -  7) =     14.32471  eV     1   --> A              
     e(  8 -  8) =     14.80319  eV     1   --> A              
     e(  9 -  9) =     15.28505  eV     1   --> A              
     e( 10 - 10) =     15.45253  eV     1   --> A              
     e( 11 - 11) =     35.92909  eV     1   --> A              
     e( 12 - 12) =     38.79666  eV     1   --> A              
     e( 13 - 13) =     39.77521  eV     1   --> A              
     e( 14 - 14) =     41.99574  eV     1   --> A              
     e( 15 - 15) =     43.23756  eV     1   --> A              

 **************************************************************************

 **************************************************************************

                    xk=(   0.12500,   0.12500,   0.00000  )

     Band symmetry, C_1 (1)     point group:

     e(  1 -  1) =    -71.48547  eV     1   --> A              
     e(  2 -  2) =    -37.39416  eV     1   --> A              
     e(  3 -  3) =    -37.36367  eV     1   --> A              
     e(  4 -  4) =    -37.34792  eV     1   --> A              
     e(  5 -  5) =      9.07631  eV     1   --> A              
     e(  6 -  6) =     14.22300  eV     1   --> A              
     e(  7 -  7) =     14.34612  eV     1   --> A              
     e(  8 -  8) =     14.67583  eV     1   --> A              
     e(  9 -  9) =     15.31253  eV     1   --> A              
     e( 10 - 10) =     15.44620  eV     1   --> A              
     e( 11 - 11) =     37.00472  eV     1   --> A              
     e( 12 - 12) =     39.27445  eV     1   --> A              
     e( 13 - 13) =     39.90910  eV     1   --> A              
     e( 14 - 14) =     42.79388  eV     1   --> A              
     e( 15 - 15) =     43.62174  eV     1   --> A              

 **************************************************************************

 **************************************************************************

                    xk=(   0.10000,   0.10000,   0.00000  )

     Band symmetry, C_1 (1)     point group:

     e(  1 -  1) =    -71.48829  eV     1   --> A              
     e(  2 -  2) =    -37.37815  eV     1   --> A              
     e(  3 -  3) =    -37.35824  eV     1   --> A              
     e(  4 -  4) =    -37.34798  eV     1   --> A              
     e(  5 -  5) =      8.86401  eV     1   --> A              
     e(  6 -  6) =     14.27458  eV     1   --> A              
     e(  7 -  7) =     14.35992  eV     1   --> A              
     e(  8 -  8) =     14.56880  eV     1   --> A              
     e(  9 -  9) =     15.34592  eV     1   --> A              
     e( 10 - 10) =     15.44124  eV     1   --> A              
     e( 11 - 11) =     38.01117  eV     1   --> A              
     e( 12 - 12) =     39.67908  eV     1   --> A              
     e( 13 - 13) =     40.03707  eV     1   --> A              
     e( 14 - 14) =     43.61310  eV     1   --> A              
     e( 15 - 15) =     44.07028  eV     1   --> A              

 **************************************************************************

 **************************************************************************

                    xk=(   0.07500,   0.07500,   0.00000  )

     Band symmetry, C_1 (1)     point group:

     e(  1 -  1) =    -71.49056  eV     1   --> A              
     e(  2 -  2) =    -37.36523  eV     1   --> A              
     e(  3 -  3) =    -37.35387  eV     1   --> A              
     e(  4 -  4) =    -37.34801  eV     1   --> A              
     e(  5 -  5) =      8.69614  eV     1   --> A              
     e(  6 -  6) =     14.31637  eV     1   --> A              
     e(  7 -  7) =     14.36746  eV     1   --> A              
     e(  8 -  8) =     14.48380  eV     1   --> A              
     e(  9 -  9) =     15.37949  eV     1   --> A              
     e( 10 - 10) =     15.43759  eV     1   --> A              
     e( 11 - 11) =     38.90963  eV     1   --> A              
     e( 12 - 12) =     39.98438  eV     1   --> A              
     e( 13 - 13) =     40.15131  eV     1   --> A              
     e( 14 - 14) =     44.25844  eV     1   --> A              
     e( 15 - 15) =     44.45074  eV     1   --> A              

 **************************************************************************

 **************************************************************************

                    xk=(   0.05000,   0.05000,   0.00000  )

     Band symmetry, C_1 (1)     point group:

     e(  1 -  1) =    -71.49223  eV     1   --> A              
     e(  2 -  2) =    -37.35578  eV     1   --> A              
     e(  3 -  3) =    -37.35067  eV     1   --> A              
     e(  4 -  4) =    -37.34803  eV     1   --> A              
     e(  5 -  5) =      8.57483  eV     1   --> A              
     e(  6 -  6) =     14.34713  eV     1   --> A              
     e(  7 -  7) =     14.37084  eV     1   --> A              
     e(  8 -  8) =     14.42216  eV     1   --> A              
     e(  9 -  9) =     15.40780  eV     1   --> A              
     e( 10 - 10) =     15.43508  eV     1   --> A              
     e( 11 - 11) =     39.64524  eV     1   --> A              
     e( 12 - 12) =     40.18350  eV     1   --> A              
     e( 13 - 13) =     40.24271  eV     1   --> A              
     e( 14 - 14) =     44.59082  eV     1   --> A              
     e( 15 - 15) =     45.16864  eV     1   --> A              

 **************************************************************************

 **************************************************************************

                    xk=(   0.02500,   0.02500,   0.00000  )

     Band symmetry, C_1 (1)     point group:

     e(  1 -  1) =    -71.49324  eV     1   --> A              
     e(  2 -  2) =    -37.35000  eV     1   --> A              
     e(  3 -  3) =    -37.34871  eV     1   --> A              
     e(  4 -  4) =    -37.34805  eV     1   --> A              
     e(  5 -  5) =      8.50152  eV     1   --> A              
     e(  6 -  6) =     14.36596  eV     1   --> A              
     e(  7 -  7) =     14.37204  eV     1   --> A              
     e(  8 -  8) =     14.38481  eV     1   --> A              
     e(  9 -  9) =     15.42658  eV     1   --> A              
     e( 10 - 10) =     15.43362  eV     1   --> A              
     e( 11 - 11) =     40.14355  eV     1   --> A              
     e( 12 - 12) =     40.29009  eV     1   --> A              
     e( 13 - 13) =     40.30222  eV     1   --> A              
     e( 14 - 14) =     44.97798  eV     1   --> A              
     e( 15 - 15) =     45.25561  eV     1   --> A              

 **************************************************************************

 **************************************************************************

                    xk=(   0.00000,   0.00000,   0.00000  )

     Band symmetry, C_1 (1)     point group:

     e(  1 -  1) =    -71.49358  eV     1   --> A              
     e(  2 -  4) =    -37.34805  eV     3   -->   3 A              
     e(  5 -  5) =      8.47699  eV     1   --> A              
     e(  6 -  8) =     14.37230  eV     3   -->   3 A              
     e(  9 - 10) =     15.43314  eV     2   -->   2 A              
     e( 11 - 13) =     40.32292  eV     3   -->   3 A              
     e( 14 - 15) =     45.18350  eV     2   -->   2 A              

 **************************************************************************

 **************************************************************************

                    xk=(   0.02500,   0.02500,   0.02500  )

     Band symmetry, C_1 (1)     point group:

     e(  1 -  1) =    -71.49307  eV     1   --> A              
     e(  2 -  2) =    -37.35129  eV     1   --> A              
     e(  3 -  4) =    -37.34838  eV     2   -->   2 A              
     e(  5 -  5) =      8.51376  eV     1   --> A              
     e(  6 -  7) =     14.36578  eV     2   -->   2 A              
     e(  8 -  8) =     14.39414  eV     1   --> A              
     e(  9 - 10) =     15.42863  eV     2   -->   2 A              
     e( 11 - 12) =     40.13160  eV     2   -->   2 A              
     e( 13 - 13) =     40.35599  eV     1   --> A              
     e( 14 - 15) =     45.08954  eV     2   -->   2 A              

 **************************************************************************

 **************************************************************************

                    xk=(   0.05000,   0.05000,   0.05000  )

     Band symmetry, C_1 (1)     point group:

     e(  1 -  1) =    -71.49156  eV     1   --> A              
     e(  2 -  2) =    -37.36083  eV     1   --> A              
     e(  3 -  4) =    -37.34936  eV     2   -->   2 A              
     e(  5 -  5) =      8.62348  eV     1   --> A              
     e(  6 -  7) =     14.34559  eV     2   -->   2 A              
     e(  8 -  8) =     14.45949  eV     1   --> A              
     e(  9 - 10) =     15.41646  eV     2   -->   2 A              
     e( 11 - 12) =     39.58969  eV     2   -->   2 A              
     e( 13 - 13) =     40.45520  eV     1   --> A              
     e( 14 - 14) =     44.40095  eV     1   --> A              
     e( 15 - 15) =     44.98105  eV     1   --> A              

 **************************************************************************

 **************************************************************************

                    xk=(   0.07500,   0.07500,   0.07500  )

     Band symmetry, C_1 (1)     point group:

     e(  1 -  1) =    -71.48911  eV     1   --> A              
     e(  2 -  2) =    -37.37615  eV     1   --> A              
     e(  3 -  4) =    -37.35102  eV     2   -->   2 A              
     e(  5 -  5) =      8.80434  eV     1   --> A              
     e(  6 -  7) =     14.31019  eV     2   -->   2 A              
     e(  8 -  8) =     14.56785  eV     1   --> A              
     e(  9 - 10) =     15.40025  eV     2   -->   2 A              
     e( 11 - 12) =     38.78839  eV     2   -->   2 A              
     e( 13 - 13) =     40.62054  eV     1   --> A              
     e( 14 - 14) =     43.00023  eV     1   --> A              
     e( 15 - 15) =     45.04527  eV     1   --> A              

 **************************************************************************

 **************************************************************************

                    xk=(   0.10000,   0.10000,   0.10000  )

     Band symmetry, C_1 (1)     point group:

     e(  1 -  1) =    -71.48581  eV     1   --> A              
     e(  2 -  2) =    -37.39639  eV     1   --> A              
     e(  3 -  4) =    -37.35339  eV     2   -->   2 A              
     e(  5 -  5) =      9.05326  eV     1   --> A              
     e(  6 -  7) =     14.25792  eV     2   -->   2 A              
     e(  8 -  8) =     14.71842  eV     1   --> A              
     e(  9 - 10) =     15.38493  eV     2   -->   2 A              
     e( 11 - 12) =     37.83547  eV     2   -->   2 A              
     e( 13 - 13) =     40.85200  eV     1   --> A              
     e( 14 - 14) =     41.57976  eV     1   --> A              
     e( 15 - 15) =     45.30404  eV     1   --> A              

 **************************************************************************

 **************************************************************************

                    xk=(   0.12500,   0.12500,   0.12500  )

     Band symmetry, C_1 (1)     point group:

     e(  1 -  1) =    -71.48181  eV     1   --> A              
     e(  2 -  2) =    -37.42053  eV     1   --> A              
     e(  3 -  4) =    -37.35654  eV     2   -->   2 A              
     e(  5 -  5) =      9.36579  eV     1   --> A              
     e(  6 -  7) =     14.18816  eV     2   -->   2 A              
     e(  8 -  8) =     14.91035  eV     1   --> A              
     e(  9 - 10) =     15.37503  eV     2   -->   2 A              
     e( 11 - 12) =     36.81165  eV     2   -->   2 A              
     e( 13 - 13) =     40.15740  eV     1   --> A              
     e( 14 - 14) =     41.14957  eV     1   --> A              
     e( 15 - 15) =     45.72255  eV     1   --> A              

 **************************************************************************

 **************************************************************************

                    xk=(   0.15000,   0.15000,   0.15000  )

     Band symmetry, C_1 (1)     point group:

     e(  1 -  1) =    -71.47725  eV     1   --> A              
     e(  2 -  2) =    -37.44725  eV     1   --> A              
     e(  3 -  4) =    -37.36051  eV     2   -->   2 A              
     e(  5 -  5) =      9.73592  eV     1   --> A              
     e(  6 -  7) =     14.10241  eV     2   -->   2 A              
     e(  8 -  8) =     15.14283  eV     1   --> A              
     e(  9 - 10) =     15.37363  eV     2   -->   2 A              
     e( 11 - 12) =     35.76566  eV     2   -->   2 A              
     e( 13 - 13) =     38.74823  eV     1   --> A              
     e( 14 - 14) =     41.51323  eV     1   --> A              
     e( 15 - 15) =     46.25553  eV     1   --> A              

 **************************************************************************

 **************************************************************************

                    xk=(   0.17500,   0.17500,   0.17500  )

     Band symmetry, C_1 (1)     point group:

     e(  1 -  1) =    -71.47230  eV     1   --> A              
     e(  2 -  2) =    -37.47511  eV     1   --> A              
     e(  3 -  4) =    -37.36531  eV     2   -->   2 A              
     e(  5 -  5) =     10.15576  eV     1   --> A              
     e(  6 -  7) =     14.00437  eV     2   -->   2 A              
     e(  8 -  9) =     15.38173  eV     2   -->   2 A              
     e( 10 - 10) =     15.41569  eV     1   --> A              
     e( 11 - 12) =     34.72511  eV     2   -->   2 A              
     e( 13 - 13) =     37.36544  eV     1   --> A              
     e( 14 - 14) =     41.94295  eV     1   --> A              
     e( 15 - 15) =     46.79433  eV     1   --> A              

 **************************************************************************

 **************************************************************************

                    xk=(   0.20000,   0.20000,   0.20000  )

     Band symmetry, C_1 (1)     point group:

     e(  1 -  1) =    -71.46716  eV     1   --> A              
     e(  2 -  2) =    -37.50269  eV     1   --> A              
     e(  3 -  4) =    -37.37104  eV     2   -->   2 A              
     e(  5 -  5) =     10.61511  eV     1   --> A              
     e(  6 -  7) =     13.89925  eV     2   -->   2 A              
     e(  8 -  9) =     15.39841  eV     2   -->   2 A              
     e( 10 - 10) =     15.72975  eV     1   --> A              
     e( 11 - 12) =     33.70571  eV     2   -->   2 A              
     e( 13 - 13) =     36.02085  eV     1   --> A              
     e( 14 - 14) =     42.43869  eV     1   --> A              
     e( 15 - 15) =     47.15565  eV     1   --> A              

 **************************************************************************

[...]
     e(  3 -  4) =    -37.48718  eV     2   -->   2 A              
     e(  5 -  6) =     13.48610  eV     2   -->   2 A              
     e(  7 -  7) =     13.64069  eV     1   --> A              
     e(  8 -  9) =     15.62537  eV     2   -->   2 A              
     e( 10 - 10) =     23.55610  eV     1   --> A              
     e( 11 - 12) =     25.10764  eV     2   -->   2 A              
     e( 13 - 13) =     26.44411  eV     1   --> A              
     e( 14 - 14) =     52.23143  eV     1   --> A              
     e( 15 - 15) =     52.90151  eV     1   --> A              

 **************************************************************************

 **************************************************************************

                    xk=(   0.50000,   0.50000,   0.50000  )

     Band symmetry, C_1 (1)     point group:

     e(  1 -  1) =    -71.43452  eV     1   --> A              
     e(  2 -  4) =    -37.49962  eV     3   -->   3 A              
     e(  5 -  7) =     13.54014  eV     3   -->   3 A              
     e(  8 -  9) =     15.62641  eV     2   -->   2 A              
     e( 10 - 12) =     24.60480  eV     3   -->   3 A              
     e( 13 - 13) =     26.27680  eV     1   --> A              
     e( 14 - 15) =     53.51289  eV     2   -->   2 A              

 **************************************************************************

 **************************************************************************

                    xk=(   0.47500,   0.47500,   0.52500  )

     Band symmetry, C_1 (1)     point group:

     e(  1 -  1) =    -71.43456  eV     1   --> A              
     e(  2 -  3) =    -37.51158  eV     2   -->   2 A              
     e(  4 -  4) =    -37.47514  eV     1   --> A              
     e(  5 -  5) =     13.42043  eV     1   --> A              
     e(  6 -  7) =     13.59733  eV     2   -->   2 A              
     e(  8 -  9) =     15.62590  eV     2   -->   2 A              
     e( 10 - 11) =     24.15719  eV     2   -->   2 A              
     e( 12 - 12) =     25.25057  eV     1   --> A              
     e( 13 - 13) =     26.64760  eV     1   --> A              
     e( 14 - 15) =     52.07233  eV     2   -->   2 A              

 **************************************************************************

 **************************************************************************

                    xk=(   0.45000,   0.45000,   0.55000  )

     Band symmetry, C_1 (1)     point group:

     e(  1 -  1) =    -71.43462  eV     1   --> A              
     e(  2 -  3) =    -37.52292  eV     2   -->   2 A              
     e(  4 -  4) =    -37.45160  eV     1   --> A              
     e(  5 -  5) =     13.29963  eV     1   --> A              
     e(  6 -  7) =     13.65112  eV     2   -->   2 A              
     e(  8 -  9) =     15.62562  eV     2   -->   2 A              
     e( 10 - 11) =     23.76859  eV     2   -->   2 A              
     e( 12 - 12) =     25.31585  eV     1   --> A              
     e( 13 - 13) =     27.71861  eV     1   --> A              
     e( 14 - 15) =     50.49803  eV     2   -->   2 A              

 **************************************************************************

 **************************************************************************

                    xk=(   0.42500,   0.42500,   0.57500  )

     Band symmetry, C_1 (1)     point group:

     e(  1 -  1) =    -71.43449  eV     1   --> A              
     e(  2 -  3) =    -37.53336  eV     2   -->   2 A              
     e(  4 -  4) =    -37.43017  eV     1   --> A              
     e(  5 -  5) =     13.19412  eV     1   --> A              
     e(  6 -  7) =     13.69420  eV     2   -->   2 A              
     e(  8 -  9) =     15.62821  eV     2   -->   2 A              
     e( 10 - 11) =     23.44311  eV     2   -->   2 A              
     e( 12 - 12) =     25.24768  eV     1   --> A              
     e( 13 - 13) =     29.02861  eV     1   --> A              
     e( 14 - 15) =     48.92429  eV     2   -->   2 A              

 **************************************************************************

 **************************************************************************

                    xk=(   0.40000,   0.40000,   0.60000  )

     Band symmetry, C_1 (1)     point group:

     e(  1 -  1) =    -71.43411  eV     1   --> A              
     e(  2 -  3) =    -37.54287  eV     2   -->   2 A              
     e(  4 -  4) =    -37.41217  eV     1   --> A              
     e(  5 -  5) =     13.11776  eV     1   --> A              
     e(  6 -  7) =     13.71880  eV     2   -->   2 A              
     e(  8 -  9) =     15.63651  eV     2   -->   2 A              
     e( 10 - 11) =     23.18462  eV     2   -->   2 A              
     e( 12 - 12) =     25.17819  eV     1   --> A              
     e( 13 - 13) =     30.43236  eV     1   --> A              
     e( 14 - 15) =     47.37571  eV     2   -->   2 A              

 **************************************************************************

 **************************************************************************

                    xk=(   0.37500,   0.37500,   0.62500  )

     Band symmetry, C_1 (1)     point group:

     e(  1 -  1) =    -71.43336  eV     1   --> A              
     e(  2 -  3) =    -37.55126  eV     2   -->   2 A              
     e(  4 -  4) =    -37.39850  eV     1   --> A              
     e(  5 -  5) =     13.08183  eV     1   --> A              
     e(  6 -  7) =     13.71778  eV     2   -->   2 A              
     e(  8 -  9) =     15.65383  eV     2   -->   2 A              
     e( 10 - 11) =     22.99638  eV     2   -->   2 A              
     e( 12 - 12) =     25.12820  eV     1   --> A              
     e( 13 - 13) =     31.89679  eV     1   --> A              
     e( 14 - 15) =     45.86522  eV     2   -->   2 A              

 **************************************************************************

 **************************************************************************

                    xk=(   0.35000,   0.35000,   0.65000  )

     Band symmetry, C_1 (1)     point group:

     e(  1 -  1) =    -71.43216  eV     1   --> A              
     e(  2 -  3) =    -37.55847  eV     2   -->   2 A              
     e(  4 -  4) =    -37.38996  eV     1   --> A              
     e(  5 -  5) =     13.09463  eV     1   --> A              
     e(  6 -  7) =     13.68571  eV     2   -->   2 A              
     e(  8 -  9) =     15.68297  eV     2   -->   2 A              
     e( 10 - 11) =     22.88025  eV     2   -->   2 A              
     e( 12 - 12) =     25.10015  eV     1   --> A              
     e( 13 - 13) =     33.40658  eV     1   --> A              
     e( 14 - 15) =     44.40037  eV     2   -->   2 A              

 **************************************************************************

 **************************************************************************

                    xk=(   0.32500,   0.32500,   0.67500  )

     Band symmetry, C_1 (1)     point group:

     e(  1 -  1) =    -71.43048  eV     1   --> A              
     e(  2 -  3) =    -37.56449  eV     2   -->   2 A              
     e(  4 -  4) =    -37.38696  eV     1   --> A              
     e(  5 -  5) =     13.16185  eV     1   --> A              
     e(  6 -  7) =     13.62017  eV     2   -->   2 A              
     e(  8 -  9) =     15.72551  eV     2   -->   2 A              
     e( 10 - 11) =     22.83635  eV     2   -->   2 A              
     e( 12 - 12) =     25.09277  eV     1   --> A              
     e( 13 - 13) =     34.94746  eV     1   --> A              
     e( 14 - 15) =     42.98592  eV     2   -->   2 A              

 **************************************************************************

 **************************************************************************

                    xk=(   0.30000,   0.30000,   0.70000  )

     Band symmetry, C_1 (1)     point group:

     e(  1 -  1) =    -71.42831  eV     1   --> A              
     e(  2 -  3) =    -37.56930  eV     2   -->   2 A              
     e(  4 -  4) =    -37.38957  eV     1   --> A              
     e(  5 -  5) =     13.28636  eV     1   --> A              
     e(  6 -  7) =     13.52226  eV     2   -->   2 A              
     e(  8 -  9) =     15.78143  eV     2   -->   2 A              
     e( 10 - 11) =     22.86281  eV     2   -->   2 A              
     e( 12 - 12) =     25.10396  eV     1   --> A              
     e( 13 - 13) =     36.49814  eV     1   --> A              
     e( 14 - 15) =     41.62518  eV     2   -->   2 A              

 **************************************************************************

 **************************************************************************

                    xk=(   0.27500,   0.27500,   0.72500  )

     Band symmetry, C_1 (1)     point group:

     e(  1 -  1) =    -71.42567  eV     1   --> A              
     e(  2 -  3) =    -37.57296  eV     2   -->   2 A              
     e(  4 -  4) =    -37.39767  eV     1   --> A              
     e(  5 -  6) =     13.39635  eV     2   -->   2 A              
     e(  7 -  7) =     13.46833  eV     1   --> A              
     e(  8 -  9) =     15.84916  eV     2   -->   2 A              
     e( 10 - 11) =     22.95592  eV     2   -->   2 A              
     e( 12 - 12) =     25.13153  eV     1   --> A              
     e( 13 - 13) =     38.01644  eV     1   --> A              
     e( 14 - 15) =     40.32068  eV     2   -->   2 A              

 **************************************************************************

 **************************************************************************

                    xk=(   0.25000,   0.25000,   0.75000  )

     Band symmetry, C_1 (1)     point group:

     e(  1 -  1) =    -71.42263  eV     1   --> A              
     e(  2 -  3) =    -37.57555  eV     2   -->   2 A              
     e(  4 -  4) =    -37.41064  eV     1   --> A              
     e(  5 -  6) =     13.24900  eV     2   -->   2 A              
     e(  7 -  7) =     13.70537  eV     1   --> A              
     e(  8 -  9) =     15.92610  eV     2   -->   2 A              
     e( 10 - 11) =     23.11047  eV     2   -->   2 A              
     e( 12 - 12) =     25.17355  eV     1   --> A              
     e( 13 - 14) =     39.07476  eV     2   -->   2 A              
     e( 15 - 15) =     39.40027  eV     1   --> A              

 **************************************************************************

 **************************************************************************

                    xk=(   0.22500,   0.22500,   0.77500  )

     Band symmetry, C_1 (1)     point group:

     e(  1 -  1) =    -71.41927  eV     1   --> A              
     e(  2 -  3) =    -37.57717  eV     2   -->   2 A              
     e(  4 -  4) =    -37.42771  eV     1   --> A              
     e(  5 -  6) =     13.08793  eV     2   -->   2 A              
     e(  7 -  7) =     13.99221  eV     1   --> A              
     e(  8 -  9) =     16.00923  eV     2   -->   2 A              
     e( 10 - 11) =     23.32021  eV     2   -->   2 A              
     e( 12 - 12) =     25.22816  eV     1   --> A              
     e( 13 - 14) =     37.88984  eV     2   -->   2 A              
     e( 15 - 15) =     40.38164  eV     1   --> A              

 **************************************************************************

 **************************************************************************

                    xk=(   0.20000,   0.20000,   0.80000  )

     Band symmetry, C_1 (1)     point group:

     e(  1 -  1) =    -71.41570  eV     1   --> A              
     e(  2 -  3) =    -37.57797  eV     2   -->   2 A              
     e(  4 -  4) =    -37.44783  eV     1   --> A              
     e(  5 -  6) =     12.92103  eV     2   -->   2 A              
     e(  7 -  7) =     14.32077  eV     1   --> A              
     e(  8 -  9) =     16.09530  eV     2   -->   2 A              
     e( 10 - 11) =     23.57812  eV     2   -->   2 A              
     e( 12 - 12) =     25.29356  eV     1   --> A              
     e( 13 - 14) =     36.76890  eV     2   -->   2 A              
     e( 15 - 15) =     40.53151  eV     1   --> A              

 **************************************************************************

 **************************************************************************

                    xk=(   0.17500,   0.17500,   0.82500  )

     Band symmetry, C_1 (1)     point group:

     e(  1 -  1) =    -71.41208  eV     1   --> A              
     e(  2 -  3) =    -37.57814  eV     2   -->   2 A              
     e(  4 -  4) =    -37.46985  eV     1   --> A              
     e(  5 -  6) =     12.75579  eV     2   -->   2 A              
     e(  7 -  7) =     14.67985  eV     1   --> A              
     e(  8 -  9) =     16.18104  eV     2   -->   2 A              
     e( 10 - 11) =     23.87649  eV     2   -->   2 A              
     e( 12 - 12) =     25.36788  eV     1   --> A              
     e( 13 - 14) =     35.71588  eV     2   -->   2 A              
     e( 15 - 15) =     39.92294  eV     1   --> A              

 **************************************************************************

 **************************************************************************

                    xk=(   0.15000,   0.15000,   0.85000  )

     Band symmetry, C_1 (1)     point group:

     e(  1 -  1) =    -71.40855  eV     1   --> A              
     e(  2 -  3) =    -37.57782  eV     2   -->   2 A              
     e(  4 -  4) =    -37.49246  eV     1   --> A              
     e(  5 -  6) =     12.59899  eV     2   -->   2 A              
     e(  7 -  7) =     15.05513  eV     1   --> A              
     e(  8 -  9) =     16.26333  eV     2   -->   2 A              
     e( 10 - 11) =     24.20646  eV     2   -->   2 A              
     e( 12 - 12) =     25.44898  eV     1   --> A              
     e( 13 - 14) =     34.73646  eV     2   -->   2 A              
     e( 15 - 15) =     39.01915  eV     1   --> A              

 **************************************************************************

 **************************************************************************

                    xk=(   0.12500,   0.12500,   0.87500  )

     Band symmetry, C_1 (1)     point group:

     e(  1 -  1) =    -71.40523  eV     1   --> A              
     e(  2 -  3) =    -37.57718  eV     2   -->   2 A              
     e(  4 -  4) =    -37.51435  eV     1   --> A              
     e(  5 -  6) =     12.45656  eV     2   -->   2 A              
     e(  7 -  7) =     15.42895  eV     1   --> A              
     e(  8 -  9) =     16.33914  eV     2   -->   2 A              
     e( 10 - 11) =     24.55706  eV     2   -->   2 A              
     e( 12 - 12) =     25.53404  eV     1   --> A              
     e( 13 - 14) =     33.83918  eV     2   -->   2 A              
     e( 15 - 15) =     38.07622  eV     1   --> A              

 **************************************************************************

 **************************************************************************

                    xk=(   0.10000,   0.10000,   0.90000  )

     Band symmetry, C_1 (1)     point group:

     e(  1 -  1) =    -71.40229  eV     1   --> A              
     e(  2 -  3) =    -37.57638  eV     2   -->   2 A              
     e(  4 -  4) =    -37.53426  eV     1   --> A              
     e(  5 -  6) =     12.33341  eV     2   -->   2 A              
     e(  7 -  7) =     15.78078  eV     1   --> A              
     e(  8 -  9) =     16.40568  eV     2   -->   2 A              
     e( 10 - 11) =     24.91337  eV     2   -->   2 A              
     e( 12 - 12) =     25.61911  eV     1   --> A              
     e( 13 - 14) =     33.03719  eV     2   -->   2 A              
     e( 15 - 15) =     37.20373  eV     1   --> A              

 **************************************************************************

 **************************************************************************

                    xk=(   0.07500,   0.07500,   0.92500  )

     Band symmetry, C_1 (1)     point group:

     e(  1 -  1) =    -71.39986  eV     1   --> A              
     e(  2 -  3) =    -37.57561  eV     2   -->   2 A              
     e(  4 -  4) =    -37.55107  eV     1   --> A              
     e(  5 -  6) =     12.23353  eV     2   -->   2 A              
     e(  7 -  7) =     16.08808  eV     1   --> A              
     e(  8 -  9) =     16.46035  eV     2   -->   2 A              
     e( 10 - 11) =     25.25376  eV     2   -->   2 A              
     e( 12 - 12) =     25.69852  eV     1   --> A              
     e( 13 - 14) =     32.35093  eV     2   -->   2 A              
     e( 15 - 15) =     36.46261  eV     1   --> A              

 **************************************************************************

 **************************************************************************

                    xk=(   0.05000,   0.05000,   0.95000  )

     Band symmetry, C_1 (1)     point group:

     e(  1 -  1) =    -71.39803  eV     1   --> A              
     e(  2 -  3) =    -37.57496  eV     2   -->   2 A              
     e(  4 -  4) =    -37.56377  eV     1   --> A              
     e(  5 -  6) =     12.16003  eV     2   -->   2 A              
     e(  7 -  7) =     16.32839  eV     1   --> A              
     e(  8 -  9) =     16.50105  eV     2   -->   2 A              
     e( 10 - 11) =     25.54679  eV     2   -->   2 A              
     e( 12 - 12) =     25.76479  eV     1   --> A              
     e( 13 - 14) =     31.81119  eV     2   -->   2 A              
     e( 15 - 15) =     35.89703  eV     1   --> A              

 **************************************************************************

 **************************************************************************

                    xk=(   0.02500,   0.02500,   0.97500  )

     Band symmetry, C_1 (1)     point group:

     e(  1 -  1) =    -71.39690  eV     1   --> A              
     e(  2 -  3) =    -37.57453  eV     2   -->   2 A              
     e(  4 -  4) =    -37.57169  eV     1   --> A              
     e(  5 -  6) =     12.11506  eV     2   -->   2 A              
     e(  7 -  7) =     16.48185  eV     1   --> A              
     e(  8 -  9) =     16.52617  eV     2   -->   2 A              
     e( 10 - 11) =     25.75100  eV     2   -->   2 A              
     e( 12 - 12) =     25.80938  eV     1   --> A              
     e( 13 - 14) =     31.45905  eV     2   -->   2 A              
     e( 15 - 15) =     35.54175  eV     1   --> A              

 **************************************************************************

 **************************************************************************

                    xk=(   0.00000,   0.00000,   1.00000  )

     Band symmetry, C_1 (1)     point group:

     e(  1 -  1) =    -71.39652  eV     1   --> A              
     e(  2 -  4) =    -37.57438  eV     3   -->   3 A              
     e(  5 -  6) =     12.09994  eV     2   -->   2 A              
     e(  7 -  9) =     16.53465  eV     3   -->   3 A              
     e( 10 - 12) =     25.82519  eV     3   -->   3 A              
     e( 13 - 14) =     31.33557  eV     2   -->   2 A              
     e( 15 - 15) =     35.42046  eV     1   --> A              

 **************************************************************************
 
     BANDS        :      1.71s CPU      3.30s WALL

 
   This run was terminated on:  20:13:20   2Jul2024            

=------------------------------------------------------------------------------=
   JOB DONE.
=------------------------------------------------------------------------------=
