
     Program DOS v.7.2 starts on  2Jul2024 at 19:58:35 

     This program is part of the open-source Quantum ESPRESSO suite
     for quantum simulation of materials; please cite
         "P. Giannozzi et al., J. Phys.:Condens. Matter 21 395502 (2009);
         "P. Giannozzi et al., J. Phys.:Condens. Matter 29 465901 (2017);
         "P. Giannozzi et al., J. Chem. Phys. 152 154105 (2020);
          URL http://www.quantum-espresso.org", 
     in publications or presentations arising from this work. More details at
     http://www.quantum-espresso.org/quote

     Parallel version (MPI), running on    10 processors

     MPI processes distributed on     1 nodes
     R & G space division:  proc/nbgrp/npool/nimage =      10
     30760 MiB available memory on the printing compute node when the environment starts
 

     Reading xml data from directory:

     ./Fe.save/
     file Fe.pbe-spn-kjpaw_psl.1.0.0.UPF: wavefunction(s)  3P 3D renormalized

     IMPORTANT: XC functional enforced from input :
     Exchange-correlation= PBE
                           (   1   4   3   4   0   0   0)
     Any further DFT definition will be discarded
     Please, verify this is what you really want

 
     Parallelization info
     --------------------
     sticks:   dense  smooth     PW     G-vecs:    dense   smooth      PW
     Min         182      81     27                 4988     1476     289
     Max         183      82     28                 4992     1478     291
     Sum        1829     817    277                49901    14771    2899
 
     Using Slab Decomposition
 

     negative rho (up, down):  0.000E+00 4.783E-05

     Tetrahedra used

 
     DOS          :   3m58.94s CPU   3m59.32s WALL

 
   This run was terminated on:  20: 2:34   2Jul2024            

=------------------------------------------------------------------------------=
   JOB DONE.
=------------------------------------------------------------------------------=
Submitted batch job 27805347
